Variables = "x","y", "Velocity_x", "Velocity_y", "Velocity_whole value", "Pressure", "Absolute pressure", "Total pressure"
Zone i=22, j=62
 0.0000000e+000  0.0000000e+000  0.0000000e+000  0.0000000e+000  0.0000000e+000  2.9853992e+000  2.9853992e+000  2.9853992e+000 
 0.0000000e+000  1.5686335e-002  1.0000000e+000  0.0000000e+000  1.0000000e+000  2.7603915e+000  2.7603915e+000  3.2603915e+000 
 0.0000000e+000  4.8627645e-002  1.0000000e+000  0.0000000e+000  1.0000000e+000  2.2878754e+000  2.2878754e+000  2.7878754e+000 
 0.0000000e+000  8.4863111e-002  1.0000000e+000  0.0000000e+000  1.0000000e+000  2.1081123e+000  2.1081123e+000  2.6081123e+000 
 0.0000000e+000  1.2472210e-001  1.0000000e+000  0.0000000e+000  1.0000000e+000  2.0222144e+000  2.0222144e+000  2.5222144e+000 
 0.0000000e+000  1.6856700e-001  1.0000000e+000  0.0000000e+000  1.0000000e+000  1.9684788e+000  1.9684788e+000  2.4684787e+000 
 0.0000000e+000  2.1679640e-001  1.0000000e+000  0.0000000e+000  1.0000000e+000  1.9319507e+000  1.9319507e+000  2.4319506e+000 
 0.0000000e+000  2.6984873e-001  1.0000000e+000  0.0000000e+000  1.0000000e+000  1.9059438e+000  1.9059438e+000  2.4059439e+000 
 0.0000000e+000  3.2820630e-001  1.0000000e+000  0.0000000e+000  1.0000000e+000  1.8875771e+000  1.8875771e+000  2.3875771e+000 
 0.0000000e+000  3.9239961e-001  1.0000000e+000  0.0000000e+000  1.0000000e+000  1.8754102e+000  1.8754102e+000  2.3754101e+000 
 0.0000000e+000  4.6301234e-001  1.0000000e+000  0.0000000e+000  1.0000000e+000  1.8690566e+000  1.8690566e+000  2.3690567e+000 
 0.0000000e+000  5.3838348e-001  1.0000000e+000  0.0000000e+000  1.0000000e+000  1.8690596e+000  1.8690596e+000  2.3690596e+000 
 0.0000000e+000  6.1131215e-001  1.0000000e+000  0.0000000e+000  1.0000000e+000  1.8758097e+000  1.8758097e+000  2.3758097e+000 
 0.0000000e+000  6.7694795e-001  1.0000000e+000  0.0000000e+000  1.0000000e+000  1.8886890e+000  1.8886890e+000  2.3886890e+000 
 0.0000000e+000  7.3602021e-001  1.0000000e+000  0.0000000e+000  1.0000000e+000  1.9080158e+000  1.9080158e+000  2.4080157e+000 
 0.0000000e+000  7.8918511e-001  1.0000000e+000  0.0000000e+000  1.0000000e+000  1.9352646e+000  1.9352646e+000  2.4352646e+000 
 0.0000000e+000  8.3703363e-001  1.0000000e+000  0.0000000e+000  1.0000000e+000  1.9734331e+000  1.9734331e+000  2.4734330e+000 
 0.0000000e+000  8.8009727e-001  1.0000000e+000  0.0000000e+000  1.0000000e+000  2.0295908e+000  2.0295908e+000  2.5295908e+000 
 0.0000000e+000  9.1885448e-001  1.0000000e+000  0.0000000e+000  1.0000000e+000  2.1200621e+000  2.1200621e+000  2.6200621e+000 
 0.0000000e+000  9.5373595e-001  1.0000000e+000  0.0000000e+000  1.0000000e+000  2.3125355e+000  2.3125355e+000  2.8125355e+000 
 0.0000000e+000  9.8512936e-001  1.0000000e+000  0.0000000e+000  1.0000000e+000  2.8006580e+000  2.8006580e+000  3.3006580e+000 
 0.0000000e+000  1.0000000e+000  0.0000000e+000  0.0000000e+000  0.0000000e+000  3.0318744e+000  3.0318744e+000  3.0318744e+000 
 1.2291715e-002  0.0000000e+000  0.0000000e+000  0.0000000e+000  0.0000000e+000  2.7913098e+000  2.7913098e+000  2.7913098e+000 
 1.2291715e-002  1.5686335e-002  9.4260460e-001  1.6154699e-001  9.5634764e-001  2.6149068e+000  2.6149068e+000  3.0722072e+000 
 1.2291715e-002  4.8627645e-002  1.0348698e+000  1.0466944e-001  1.0401496e+000  2.2444632e+000  2.2444632e+000  2.7854187e+000 
 1.2291715e-002  8.4863111e-002  1.0083762e+000  4.0675089e-002  1.0091963e+000  2.0996339e+000  2.0996339e+000  2.6088724e+000 
 1.2291715e-002  1.2472210e-001  1.0021821e+000  2.0071158e-002  1.0023831e+000  2.0198436e+000  2.0198436e+000  2.5222294e+000 
 1.2291715e-002  1.6856700e-001  1.0009363e+000  1.2015008e-002  1.0010084e+000  1.9673424e+000  1.9673424e+000  2.4683514e+000 
 1.2291715e-002  2.1679640e-001  1.0005010e+000  7.6160356e-003  1.0005300e+000  1.9313174e+000  1.9313174e+000  2.4318476e+000 
 1.2291715e-002  2.6984873e-001  1.0003089e+000  4.9239667e-003  1.0003210e+000  1.9055506e+000  1.9055506e+000  2.4058716e+000 
 1.2291715e-002  3.2820630e-001  1.0002036e+000  3.0876722e-003  1.0002084e+000  1.8873165e+000  1.8873165e+000  2.3875248e+000 
 1.2291715e-002  3.9239961e-001  1.0001485e+000  1.7126994e-003  1.0001500e+000  1.8752197e+000  1.8752197e+000  2.3753698e+000 
 1.2291715e-002  4.6301234e-001  1.0001251e+000  5.5116892e-004  1.0001252e+000  1.8688979e+000  1.8688979e+000  2.3690231e+000 
 1.2291715e-002  5.3838348e-001  1.0001251e+000 -5.6761736e-004  1.0001252e+000  1.8689034e+000  1.8689034e+000  2.3690286e+000 
 1.2291715e-002  6.1131215e-001  1.0001507e+000 -1.7695341e-003  1.0001522e+000  1.8756180e+000  1.8756180e+000  2.3757703e+000 
 1.2291715e-002  6.7694795e-001  1.0002096e+000 -3.2046274e-003  1.0002147e+000  1.8884232e+000  1.8884232e+000  2.3886380e+000 
 1.2291715e-002  7.3602021e-001  1.0003237e+000 -5.1357835e-003  1.0003369e+000  1.9076068e+000  1.9076068e+000  2.4079437e+000 
 1.2291715e-002  7.8918511e-001  1.0005342e+000 -7.9946211e-003  1.0005661e+000  1.9345946e+000  1.9345946e+000  2.4351609e+000 
 1.2291715e-002  8.3703363e-001  1.0010233e+000 -1.2714888e-002  1.0011040e+000  1.9722075e+000  1.9722075e+000  2.4733121e+000 
 1.2291715e-002  8.8009727e-001  1.0024997e+000 -2.1535080e-002  1.0027310e+000  2.0269232e+000  2.0269232e+000  2.5296578e+000 
 1.2291715e-002  9.1885448e-001  1.0098554e+000 -4.4702739e-002  1.0108443e+000  2.1100571e+000  2.1100571e+000  2.6209602e+000 
 1.2291715e-002  9.5373595e-001  1.0379158e+000 -1.1287739e-001  1.0440357e+000  2.2635834e+000  2.2635834e+000  2.8085887e+000 
 1.2291715e-002  9.8512936e-001  9.3508822e-001 -1.6628936e-001  9.4975901e-001  2.6432359e+000  2.6432359e+000  3.0942569e+000 
 1.2291715e-002  1.0000000e+000  0.0000000e+000  0.0000000e+000  0.0000000e+000  2.8230696e+000  2.8230696e+000  2.8230696e+000 
 3.7736509e-002  0.0000000e+000  0.0000000e+000  0.0000000e+000  0.0000000e+000  2.3895299e+000  2.3895299e+000  2.3895299e+000 
 3.7736509e-002  1.5686335e-002  8.0741119e-001  1.6489968e-001  8.2407814e-001  2.3137453e+000  2.3137453e+000  2.6532977e+000 
 3.7736509e-002  4.8627645e-002  1.0812387e+000  2.0041654e-001  1.0996563e+000  2.1546004e+000  2.1546004e+000  2.7592225e+000 
 3.7736509e-002  8.4863111e-002  1.0442791e+000  1.0958725e-001  1.0500134e+000  2.0820866e+000  2.0820866e+000  2.6333506e+000 
 3.7736509e-002  1.2472210e-001  1.0162929e+000  6.0911134e-002  1.0181166e+000  2.0149391e+000  2.0149391e+000  2.5332198e+000 
 3.7736509e-002  1.6856700e-001  1.0069336e+000  3.7084632e-002  1.0076163e+000  1.9649929e+000  1.9649929e+000  2.4726381e+000 
 3.7736509e-002  2.1679640e-001  1.0035807e+000  2.3504129e-002  1.0038559e+000  1.9300094e+000  1.9300094e+000  2.4338727e+000 
 3.7736509e-002  2.6984873e-001  1.0021045e+000  1.5161931e-002  1.0022192e+000  1.9047390e+000  1.9047390e+000  2.4069607e+000 
 3.7736509e-002  3.2820630e-001  1.0013555e+000  9.4957342e-003  1.0014006e+000  1.8867787e+000  1.8867787e+000  2.3881803e+000 
 3.7736509e-002  3.9239961e-001  1.0009739e+000  5.2644447e-003  1.0009878e+000  1.8748263e+000  1.8748263e+000  2.3758147e+000 
 3.7736509e-002  4.6301234e-001  1.0008097e+000  1.6938064e-003  1.0008111e+000  1.8685694e+000  1.8685694e+000  2.3693807e+000 
 3.7736509e-002  5.3838348e-001  1.0008099e+000 -1.7436921e-003  1.0008115e+000  1.8685793e+000  1.8685793e+000  2.3693910e+000 
 3.7736509e-002  6.1131215e-001  1.0009872e+000 -5.4386803e-003  1.0010020e+000  1.8752191e+000  1.8752191e+000  2.3762217e+000 
 3.7736509e-002  6.7694795e-001  1.0013973e+000 -9.8555675e-003  1.0014458e+000  1.8878701e+000  1.8878701e+000  2.3893168e+000 
 3.7736509e-002  7.3602021e-001  1.0022130e+000 -1.5817462e-002  1.0023378e+000  1.9067572e+000  1.9067572e+000  2.4090977e+000 
 3.7736509e-002  7.8918511e-001  1.0038443e+000 -2.4683235e-002  1.0041476e+000  1.9332047e+000  1.9332047e+000  2.4373610e+000 
 3.7736509e-002  8.3703363e-001  1.0076410e+000 -3.9251331e-002  1.0084052e+000  1.9696667e+000  1.9696667e+000  2.4781072e+000 
 3.7736509e-002  8.8009727e-001  1.0184288e+000 -6.5079965e-002  1.0205060e+000  2.0213969e+000  2.0213969e+000  2.5421133e+000 
 3.7736509e-002  9.1885448e-001  1.0495529e+000 -1.1784517e-001  1.0561481e+000  2.0893421e+000  2.0893421e+000  2.6470666e+000 
 3.7736509e-002  9.5373595e-001  1.0838759e+000 -2.0851119e-001  1.1037499e+000  2.1622448e+000  2.1622448e+000  2.7713768e+000 
 3.7736509e-002  9.8512936e-001  7.8865296e-001 -1.6184570e-001  8.0508852e-001  2.3173556e+000  2.3173556e+000  2.6414394e+000 
 3.7736509e-002  1.0000000e+000  0.0000000e+000  0.0000000e+000  0.0000000e+000  2.3908274e+000  2.3908274e+000  2.3908274e+000 
 6.4963534e-002  0.0000000e+000  0.0000000e+000  0.0000000e+000  0.0000000e+000  2.1428356e+000  2.1428356e+000  2.1428356e+000 
 6.4963534e-002  1.5686335e-002  6.5192741e-001  1.1069012e-001  6.6125762e-001  2.1168482e+000  2.1168482e+000  2.3354790e+000 
 6.4963534e-002  4.8627645e-002  1.0835005e+000  2.1410637e-001  1.1044523e+000  2.0622776e+000  2.0622776e+000  2.6721849e+000 
 6.4963534e-002  8.4863111e-002  1.0928837e+000  1.5460958e-001  1.1037658e+000  2.0327241e+000  2.0327241e+000  2.6418736e+000 
 6.4963534e-002  1.2472210e-001  1.0459299e+000  9.5575795e-002  1.0502876e+000  1.9912294e+000  1.9912294e+000  2.5427814e+000 
 6.4963534e-002  1.6856700e-001  1.0213308e+000  6.0233977e-002  1.0231055e+000  1.9536148e+000  1.9536148e+000  2.4769871e+000 
 6.4963534e-002  2.1679640e-001  1.0112280e+000  3.9052285e-002  1.0119817e+000  1.9238629e+000  1.9238629e+000  2.4359164e+000 
 6.4963534e-002  2.6984873e-001  1.0065938e+000  2.5492340e-002  1.0069165e+000  1.9011016e+000  1.9011016e+000  2.4080422e+000 
 6.4963534e-002  3.2820630e-001  1.0042443e+000  1.6067659e-002  1.0043728e+000  1.8844283e+000  1.8844283e+000  2.3888106e+000 
 6.4963534e-002  3.9239961e-001  1.0030445e+000  8.9390613e-003  1.0030843e+000  1.8731353e+000  1.8731353e+000  2.3762245e+000 
 6.4963534e-002  4.6301234e-001  1.0025238e+000  2.8806105e-003  1.0025280e+000  1.8671684e+000  1.8671684e+000  2.3696995e+000 
 6.4963534e-002  5.3838348e-001  1.0025257e+000 -2.9645932e-003  1.0025301e+000  1.8671823e+000  1.8671823e+000  2.3697155e+000 
 6.4963534e-002  6.1131215e-001  1.0030850e+000 -9.2324885e-003  1.0031275e+000  1.8735063e+000  1.8735063e+000  2.3766387e+000 
 6.4963534e-002  6.7694795e-001  1.0043756e+000 -1.6667275e-002  1.0045139e+000  1.8854482e+000  1.8854482e+000  2.3899722e+000 
 6.4963534e-002  7.3602021e-001  1.0069330e+000 -2.6563063e-002  1.0072833e+000  1.9029362e+000  1.9029362e+000  2.4102461e+000 
 6.4963534e-002  7.8918511e-001  1.0120459e+000 -4.0908705e-002  1.0128723e+000  1.9266248e+000  1.9266248e+000  2.4395800e+000 
 6.4963534e-002  8.3703363e-001  1.0233953e+000 -6.3465722e-002  1.0253613e+000  1.9572451e+000  1.9572451e+000  2.4829280e+000 
 6.4963534e-002  8.8009727e-001  1.0508895e+000 -1.0120475e-001  1.0557514e+000  1.9951681e+000  1.9951681e+000  2.5524735e+000 
 6.4963534e-002  9.1885448e-001  1.0998788e+000 -1.6239251e-001  1.1118025e+000  2.0352786e+000  2.0352786e+000  2.6533308e+000 
 6.4963534e-002  9.5373595e-001  1.0791332e+000 -2.1495385e-001  1.1003333e+000  2.0628340e+000  2.0628340e+000  2.6682007e+000 
 6.4963534e-002  9.8512936e-001  6.2622899e-001 -1.0303488e-001  6.3464868e-001  2.1097271e+000  2.1097271e+000  2.3111167e+000 
 6.4963534e-002  1.0000000e+000  0.0000000e+000  0.0000000e+000  0.0000000e+000  2.1319377e+000  2.1319377e+000  2.1319377e+000 
 9.4095588e-002  0.0000000e+000  0.0000000e+000  0.0000000e+000  0.0000000e+000  1.9923548e+000  1.9923548e+000  1.9923548e+000 
 9.4095588e-002  1.5686335e-002  5.1674896e-001  6.3605629e-002  5.2064878e-001  1.9899271e+000  1.9899271e+000  2.1254647e+000 
 9.4095588e-002  4.8627645e-002  1.0454181e+000  1.8678389e-001  1.0619733e+000  1.9848322e+000  1.9848322e+000  2.5487258e+000 
 9.4095588e-002  8.4863111e-002  1.1296570e+000  1.7353362e-001  1.1429081e+000  1.9768585e+000  1.9768585e+000  2.6299779e+000 
 9.4095588e-002  1.2472210e-001  1.0820056e+000  1.2017310e-001  1.0886587e+000  1.9582026e+000  1.9582026e+000  2.5507915e+000 
 9.4095588e-002  1.6856700e-001  1.0422623e+000  7.9096161e-002  1.0452592e+000  1.9353328e+000  1.9353328e+000  2.4816163e+000 
 9.4095588e-002  2.1679640e-001  1.0230705e+000  5.2817769e-002  1.0244329e+000  1.9131911e+000  1.9131911e+000  2.4379225e+000 
 9.4095588e-002  2.6984873e-001  1.0138010e+000  3.5165198e-002  1.0144106e+000  1.8945303e+000  1.8945303e+000  2.4090447e+000 
 9.4095588e-002  3.2820630e-001  1.0089957e+000  2.2439821e-002  1.0092452e+000  1.8800846e+000  1.8800846e+000  2.3893726e+000 
 9.4095588e-002  3.9239961e-001  1.0064995e+000  1.2573546e-002  1.0065781e+000  1.8699712e+000  1.8699712e+000  2.3765709e+000 
 9.4095588e-002  4.6301234e-001  1.0054024e+000  4.0656612e-003  1.0054107e+000  1.8645309e+000  1.8645309e+000  2.3699563e+000 
 9.4095588e-002  5.3838348e-001  1.0054076e+000 -4.1820249e-003  1.0054163e+000  1.8645463e+000  1.8645463e+000  2.3699772e+000 
 9.4095588e-002  6.1131215e-001  1.0065823e+000 -1.2980312e-002  1.0066659e+000  1.8703034e+000  1.8703034e+000  2.3769915e+000 
 9.4095588e-002  6.7694795e-001  1.0092651e+000 -2.3252578e-002  1.0095329e+000  1.8809792e+000  1.8809792e+000  2.3905575e+000 
 9.4095588e-002  7.3602021e-001  1.0144787e+000 -3.6563586e-002  1.0151374e+000  1.8960593e+000  1.8960593e+000  2.4113111e+000 
 9.4095588e-002  7.8918511e-001  1.0246543e+000 -5.5117019e-002  1.0261356e+000  1.9152915e+000  1.9152915e+000  2.4417686e+000 
 9.4095588e-002  8.3703363e-001  1.0459296e+000 -8.2848407e-002  1.0492057e+000  1.9376088e+000  1.9376088e+000  2.4880252e+000 
 9.4095588e-002  8.8009727e-001  1.0889047e+000 -1.2581065e-001  1.0961486e+000  1.9596726e+000  1.9596726e+000  2.5604434e+000 
 9.4095588e-002  9.1885448e-001  1.1343651e+000 -1.7798509e-001  1.1482433e+000  1.9763762e+000  1.9763762e+000  2.6356075e+000 
 9.4095588e-002  9.5373595e-001  1.0318242e+000 -1.8085809e-001  1.0475547e+000  1.9830017e+000  1.9830017e+000  2.5316873e+000 
 9.4095588e-002  9.8512936e-001  4.9020478e-001 -5.5974774e-002  4.9339020e-001  1.9812894e+000  1.9812894e+000  2.1030064e+000 
 9.4095588e-002  1.0000000e+000  0.0000000e+000  0.0000000e+000  0.0000000e+000  1.9804763e+000  1.9804763e+000  1.9804763e+000 
 1.2526625e-001  0.0000000e+000  0.0000000e+000  0.0000000e+000  0.0000000e+000  1.8981023e+000  1.8981023e+000  1.8981023e+000 
 1.2526625e-001  1.5686335e-002  4.1590637e-001  3.1823132e-002  4.1712207e-001  1.9070581e+000  1.9070581e+000  1.9940535e+000 
 1.2526625e-001  4.8627645e-002  9.8214906e-001  1.4442386e-001  9.9271095e-001  1.9258689e+000  1.9258689e+000  2.4186063e+000 
 1.2526625e-001  8.4863111e-002  1.1440532e+000  1.7097393e-001  1.1567583e+000  1.9287932e+000  1.9287932e+000  2.5978382e+000 
 1.2526625e-001  1.2472210e-001  1.1156132e+000  1.3404469e-001  1.1236373e+000  1.9251585e+000  1.9251585e+000  2.5564389e+000 
 1.2526625e-001  1.6856700e-001  1.0666406e+000  9.3129136e-002  1.0706985e+000  1.9142679e+000  1.9142679e+000  2.4874656e+000 
 1.2526625e-001  2.1679640e-001  1.0380263e+000  6.4115725e-002  1.0400046e+000  1.8997282e+000  1.8997282e+000  2.4405329e+000 
 1.2526625e-001  2.6984873e-001  1.0233386e+000  4.3652140e-002  1.0242691e+000  1.8856941e+000  1.8856941e+000  2.4102578e+000 
 1.2526625e-001  3.2820630e-001  1.0155141e+000  2.8296346e-002  1.0159082e+000  1.8739851e+000  1.8739851e+000  2.3900199e+000 
 1.2526625e-001  3.9239961e-001  1.0113547e+000  1.6009172e-002  1.0114814e+000  1.8654089e+000  1.8654089e+000  2.3769562e+000 
 1.2526625e-001  4.6301234e-001  1.0094969e+000  5.2018529e-003  1.0095103e+000  1.8606772e+000  1.8606772e+000  2.3702328e+000 
 1.2526625e-001  5.3838348e-001  1.0095059e+000 -5.3470004e-003  1.0095201e+000  1.8606919e+000  1.8606919e+000  2.3702571e+000 
 1.2526625e-001  6.1131215e-001  1.0114902e+000 -1.6517870e-002  1.0116251e+000  1.8656917e+000  1.8656917e+000  2.3773844e+000 
 1.2526625e-001  6.7694795e-001  1.0159510e+000 -2.9283142e-002  1.0163729e+000  1.8747256e+000  1.8747256e+000  2.3912325e+000 
 1.2526625e-001  7.3602021e-001  1.0244052e+000 -4.5276850e-002  1.0254053e+000  1.8868799e+000  1.8868799e+000  2.4126079e+000 
 1.2526625e-001  7.8918511e-001  1.0404267e+000 -6.6649698e-002  1.0425594e+000  1.9011725e+000  1.9011725e+000  2.4446375e+000 
 1.2526625e-001  8.3703363e-001  1.0716314e+000 -9.6965536e-002  1.0760094e+000  1.9154416e+000  1.9154416e+000  2.4943397e+000 
 1.2526625e-001  8.8009727e-001  1.1225896e+000 -1.3859460e-001  1.1311127e+000  1.9252288e+000  1.9252288e+000  2.5649369e+000 
 1.2526625e-001  9.1885448e-001  1.1434389e+000 -1.7141785e-001  1.1562165e+000  1.9274162e+000  1.9274162e+000  2.5958345e+000 
 1.2526625e-001  9.5373595e-001  9.6065789e-001 -1.3506934e-001  9.7010684e-001  1.9241555e+000  1.9241555e+000  2.3947091e+000 
 1.2526625e-001  9.8512936e-001  3.9252794e-001 -2.6244568e-002  3.9340433e-001  1.9013526e+000  1.9013526e+000  1.9787362e+000 
 1.2526625e-001  1.0000000e+000  0.0000000e+000  0.0000000e+000  0.0000000e+000  1.8905493e+000  1.8905493e+000  1.8905493e+000 
 1.5861896e-001  0.0000000e+000  0.0000000e+000  0.0000000e+000  0.0000000e+000  1.8455043e+000  1.8455043e+000  1.8455043e+000 
 1.5861896e-001  1.5686335e-002  3.4499127e-001  1.3331650e-002  3.4524876e-001  1.8576916e+000  1.8576916e+000  1.9172900e+000 
 1.5861896e-001  4.8627645e-002  9.0796024e-001  1.0322946e-001  9.1380966e-001  1.8832885e+000  1.8832885e+000  2.3008125e+000 
 1.5861896e-001  8.4863111e-002  1.1365317e+000  1.5482000e-001  1.1470281e+000  1.8901200e+000  1.8901200e+000  2.5479567e+000 
 1.5861896e-001  1.2472210e-001  1.1416217e+000  1.3807410e-001  1.1499411e+000  1.8947361e+000  1.8947361e+000  2.5559185e+000 
 1.5861896e-001  1.6856700e-001  1.0919231e+000  1.0228339e-001  1.0967033e+000  1.8923941e+000  1.8923941e+000  2.4937730e+000 
 1.5861896e-001  2.1679640e-001  1.0552138e+000  7.2691880e-002  1.0577147e+000  1.8845222e+000  1.8845222e+000  2.4439023e+000 
 1.5861896e-001  2.6984873e-001  1.0348644e+000  5.0621588e-002  1.0361018e+000  1.8750291e+000  1.8750291e+000  2.4117825e+000 
 1.5861896e-001  3.2820630e-001  1.0237106e+000  3.3381429e-002  1.0242547e+000  1.8662397e+000  1.8662397e+000  2.3907886e+000 
 1.5861896e-001  3.9239961e-001  1.0176426e+000  1.9098464e-002  1.0178218e+000  1.8594148e+000  1.8594148e+000  2.3773954e+000 
 1.5861896e-001  4.6301234e-001  1.0148842e+000  6.2420606e-003  1.0149034e+000  1.8555232e+000  1.8555232e+000  2.3705378e+000 
 1.5861896e-001  5.3838348e-001  1.0148958e+000 -6.4117638e-003  1.0149161e+000  1.8555374e+000  1.8555374e+000  2.3705647e+000 
 1.5861896e-001  6.1131215e-001  1.0178359e+000 -1.9694649e-002  1.0180264e+000  1.8596439e+000  1.8596439e+000  2.3778329e+000 
 1.5861896e-001  6.7694795e-001  1.0243274e+000 -3.4500733e-002  1.0249083e+000  1.8668193e+000  1.8668193e+000  2.3920376e+000 
 1.5861896e-001  7.3602021e-001  1.0363317e+000 -5.2385222e-002  1.0376548e+000  1.8758879e+000  1.8758879e+000  2.4142516e+000 
 1.5861896e-001  7.8918511e-001  1.0583742e+000 -7.5313173e-002  1.0610504e+000  1.8854151e+000  1.8854151e+000  2.4483290e+000 
 1.5861896e-001  8.3703363e-001  1.0976557e+000 -1.0588313e-001  1.1027508e+000  1.8928269e+000  1.8928269e+000  2.5008564e+000 
 1.5861896e-001  8.8009727e-001  1.1468831e+000 -1.4101857e-001  1.1555203e+000  1.8942798e+000  1.8942798e+000  2.5618935e+000 
 1.5861896e-001  9.1885448e-001  1.1294162e+000 -1.5210013e-001  1.1396120e+000  1.8891377e+000  1.8891377e+000  2.5384955e+000 
 1.5861896e-001  9.5373595e-001  8.8134730e-001 -9.3828373e-002  8.8632774e-001  1.8825182e+000  1.8825182e+000  2.2753067e+000 
 1.5861896e-001  9.8512936e-001  3.2599813e-001 -1.0120765e-002  3.2615519e-001  1.8557550e+000  1.8557550e+000  1.9089435e+000 
 1.5861896e-001  1.0000000e+000  0.0000000e+000  0.0000000e+000  0.0000000e+000  1.8430758e+000  1.8430758e+000  1.8430758e+000 
 1.9430619e-001  0.0000000e+000  0.0000000e+000  0.0000000e+000  0.0000000e+000  1.8186724e+000  1.8186724e+000  1.8186724e+000 
 1.9430619e-001  1.5686335e-002  2.9655504e-001  4.3628705e-003  2.9658714e-001  1.8297333e+000  1.8297333e+000  1.8737152e+000 
 1.9430619e-001  4.8627645e-002  8.3319640e-001  7.1012244e-002  8.3621705e-001  1.8529648e+000  1.8529648e+000  2.2025943e+000 
 1.9430619e-001  8.4863111e-002  1.1115508e+000  1.3274807e-001  1.1194495e+000  1.8601714e+000  1.8601714e+000  2.4867551e+000 
 1.9430619e-001  1.2472210e-001  1.1574186e+000  1.3442519e-001  1.1651987e+000  1.8679214e+000  1.8679214e+000  2.5467653e+000 
 1.9430619e-001  1.6856700e-001  1.1158195e+000  1.0685083e-001  1.1209238e+000  1.8708962e+000  1.8708962e+000  2.4991312e+000 
 1.9430619e-001  2.1679640e-001  1.0737607e+000  7.8551352e-002  1.0766301e+000  1.8683165e+000  1.8683165e+000  2.4478827e+000 
 1.9430619e-001  2.6984873e-001  1.0480163e+000  5.5907469e-002  1.0495064e+000  1.8629112e+000  1.8629112e+000  2.4136431e+000 
 1.9430619e-001  3.2820630e-001  1.0334430e+000  3.7508044e-002  1.0341234e+000  1.8569754e+000  1.8569754e+000  2.3916810e+000 
 1.9430619e-001  3.9239961e-001  1.0253483e+000  2.1715457e-002  1.0255783e+000  1.8519744e+000  1.8519744e+000  2.3778796e+000 
 1.9430619e-001  4.6301234e-001  1.0216055e+000  7.1430397e-003  1.0216304e+000  1.8489956e+000  1.8489956e+000  2.3708599e+000 
 1.9430619e-001  5.3838348e-001  1.0216184e+000 -7.3330994e-003  1.0216447e+000  1.8490093e+000  1.8490093e+000  2.3708882e+000 
 1.9430619e-001  6.1131215e-001  1.0256007e+000 -2.2383874e-002  1.0258449e+000  1.8521508e+000  1.8521508e+000  2.3783298e+000 
 1.9430619e-001  6.7694795e-001  1.0342414e+000 -3.8721848e-002  1.0349661e+000  1.8574014e+000  1.8574014e+000  2.3929787e+000 
 1.9430619e-001  7.3602021e-001  1.0498739e+000 -5.7745632e-002  1.0514609e+000  1.8634820e+000  1.8634820e+000  2.4162669e+000 
 1.9430619e-001  7.8918511e-001  1.0775472e+000 -8.1161611e-002  1.0805994e+000  1.8687814e+000  1.8687814e+000  2.4526291e+000 
 1.9430619e-001  8.3703363e-001  1.1215864e+000 -1.1000082e-001  1.1269678e+000  1.8708950e+000  1.8708950e+000  2.5059233e+000 
 1.9430619e-001  8.8009727e-001  1.1596941e+000 -1.3575792e-001  1.1676131e+000  1.8674296e+000  1.8674296e+000  2.5490899e+000 
 1.9430619e-001  9.1885448e-001  1.0982708e+000 -1.2824883e-001  1.1057334e+000  1.8599349e+000  1.8599349e+000  2.4712582e+000 
 1.9430619e-001  9.5373595e-001  8.0427390e-001 -6.3506447e-002  8.0677730e-001  1.8529516e+000  1.8529516e+000  2.1783965e+000 
 1.9430619e-001  9.8512936e-001  2.8140515e-001 -2.9707893e-003  2.8142083e-001  1.8302473e+000  1.8302473e+000  1.8698461e+000 
 1.9430619e-001  1.0000000e+000  0.0000000e+000  0.0000000e+000  0.0000000e+000  1.8194907e+000  1.8194907e+000  1.8194907e+000 
 2.3249130e-001  0.0000000e+000  0.0000000e+000  0.0000000e+000  0.0000000e+000  1.8037640e+000  1.8037640e+000  1.8037640e+000 
 2.3249130e-001  1.5686335e-002  2.6333797e-001  9.1439061e-004  2.6333955e-001  1.8123345e+000  1.8123345e+000  1.8470083e+000 
 2.3249130e-001  4.8627645e-002  7.6418394e-001  4.8918065e-002  7.6574802e-001  1.8303365e+000  1.8303365e+000  2.1235216e+000 
 2.3249130e-001  8.4863111e-002  1.0748405e+000  1.1007480e-001  1.0804622e+000  1.8370492e+000  1.8370492e+000  2.4207485e+000 
 2.3249130e-001  1.2472210e-001  1.1624757e+000  1.2569264e-001  1.1692512e+000  1.8449707e+000  1.8449707e+000  2.5285449e+000 
 2.3249130e-001  1.6856700e-001  1.1364651e+000  1.0747304e-001  1.1415355e+000  1.8506294e+000  1.8506294e+000  2.5021811e+000 
 2.3249130e-001  2.1679640e-001  1.0927541e+000  8.1911348e-002  1.0958198e+000  1.8517931e+000  1.8517931e+000  2.4522035e+000 
 2.3249130e-001  2.6984873e-001  1.0623925e+000  5.9513915e-002  1.0640581e+000  1.8497622e+000  1.8497622e+000  2.4158721e+000 
 2.3249130e-001  3.2820630e-001  1.0445067e+000  4.0580783e-002  1.0452946e+000  1.8464018e+000  1.8464018e+000  2.3927224e+000 
 2.3249130e-001  3.9239961e-001  1.0343896e+000  2.3772983e-002  1.0346627e+000  1.8431545e+000  1.8431545e+000  2.3784180e+000 
 2.3249130e-001  4.6301234e-001  1.0296397e+000  7.8713465e-003  1.0296698e+000  1.8410913e+000  1.8410913e+000  2.3712013e+000 
 2.3249130e-001  5.3838348e-001  1.0296520e+000 -8.0783125e-003  1.0296837e+000  1.8411057e+000  1.8411057e+000  2.3712299e+000 
 2.3249130e-001  6.1131215e-001  1.0346991e+000 -2.4498802e-002  1.0349891e+000  1.8432819e+000  1.8432819e+000  2.3788831e+000 
 2.3249130e-001  6.7694795e-001  1.0454814e+000 -4.1857578e-002  1.0463190e+000  1.8466895e+000  1.8466895e+000  2.3940811e+000 
 2.3249130e-001  7.3602021e-001  1.0646148e+000 -6.1383840e-002  1.0663830e+000  1.8500922e+000  1.8500922e+000  2.4186785e+000 
 2.3249130e-001  7.8918511e-001  1.0969698e+000 -8.4440261e-002  1.1002150e+000  1.8519443e+000  1.8519443e+000  2.4571807e+000 
 2.3249130e-001  8.3703363e-001  1.1415695e+000 -1.1004918e-001  1.1468617e+000  1.8504039e+000  1.8504039e+000  2.5080497e+000 
 2.3249130e-001  8.8009727e-001  1.1610969e+000 -1.2567015e-001  1.1678780e+000  1.8446133e+000  1.8446133e+000  2.5265830e+000 
 2.3249130e-001  9.1885448e-001  1.0565631e+000 -1.0499116e-001  1.0617669e+000  1.8372811e+000  1.8372811e+000  2.4009554e+000 
 2.3249130e-001  9.5373595e-001  7.3504591e-001 -4.3673195e-002  7.3634219e-001  1.8305919e+000  1.8305919e+000  2.1016917e+000 
 2.3249130e-001  9.8512936e-001  2.5080422e-001 -5.5696216e-004  2.5080484e-001  1.8136768e+000  1.8136768e+000  1.8451284e+000 
 2.3249130e-001  1.0000000e+000  0.0000000e+000  0.0000000e+000  0.0000000e+000  1.8056625e+000  1.8056625e+000  1.8056625e+000 
 2.7334976e-001  0.0000000e+000  0.0000000e+000  0.0000000e+000  0.0000000e+000  1.7928058e+000  1.7928058e+000  1.7928058e+000 
 2.7334976e-001  1.5686335e-002  2.3939191e-001  1.9579846e-005  2.3939191e-001  1.7990130e+000  1.7990130e+000  1.8276672e+000 
 2.7334976e-001  4.8627645e-002  7.0366842e-001  3.4746267e-002  7.0452577e-001  1.8120522e+000  1.8120522e+000  2.0602305e+000 
 2.7334976e-001  8.4863111e-002  1.0317926e+000  8.9590490e-002  1.0356749e+000  1.8182594e+000  1.8182594e+000  2.3545706e+000 
 2.7334976e-001  1.2472210e-001  1.1578134e+000  1.1410851e-001  1.1634228e+000  1.8252583e+000  1.8252583e+000  2.5020347e+000 
 2.7334976e-001  1.6856700e-001  1.1526858e+000  1.0492399e-001  1.1574513e+000  1.8318717e+000  1.8318717e+000  2.5017185e+000 
 2.7334976e-001  2.1679640e-001  1.1113665e+000  8.3086789e-002  1.1144680e+000  1.8354044e+000  1.8354044e+000  2.4564238e+000 
 2.7334976e-001  2.6984873e-001  1.0776091e+000  6.1571382e-002  1.0793667e+000  1.8359468e+000  1.8359468e+000  2.4184630e+000 
 2.7334976e-001  3.2820630e-001  1.0566798e+000  4.2597994e-002  1.0575382e+000  1.8347501e+000  1.8347501e+000  2.3939435e+000 
 2.7334976e-001  3.9239961e-001  1.0446389e+000  2.5231570e-002  1.0449436e+000  1.8330705e+000  1.8330705e+000  2.3790240e+000 
 2.7334976e-001  4.6301234e-001  1.0389150e+000  8.4073367e-003  1.0389490e+000  1.8318622e+000  1.8318622e+000  2.3715699e+000 
 2.7334976e-001  5.3838348e-001  1.0389254e+000 -8.6287167e-003  1.0389613e+000  1.8318776e+000  1.8318776e+000  2.3715978e+000 
 2.7334976e-001  6.1131215e-001  1.0450028e+000 -2.6001008e-002  1.0453262e+000  1.8331548e+000  1.8331548e+000  2.3795083e+000 
 2.7334976e-001  6.7694795e-001  1.0578237e+000 -4.3912727e-002  1.0587348e+000  1.8349190e+000  1.8349190e+000  2.3953786e+000 
 2.7334976e-001  7.3602021e-001  1.0801554e+000 -6.3442729e-002  1.0820169e+000  1.8360813e+000  1.8360813e+000  2.4214616e+000 
 2.7334976e-001  7.8918511e-001  1.1157650e+000 -8.5471183e-002  1.1190338e+000  1.8353308e+000  1.8353308e+000  2.4614491e+000 
 2.7334976e-001  8.3703363e-001  1.1565218e+000 -1.0686231e-001  1.1614484e+000  1.8315331e+000  1.8315331e+000  2.5060141e+000 
 2.7334976e-001  8.8009727e-001  1.1525968e+000 -1.1305304e-001  1.1581280e+000  1.8250136e+000  1.8250136e+000  2.4956439e+000 
 2.7334976e-001  9.1885448e-001  1.0098779e+000 -8.4665142e-002  1.0134207e+000  1.8185643e+000  1.8185643e+000  2.3320751e+000 
 2.7334976e-001  9.5373595e-001  6.7547214e-001 -3.1252407e-002  6.7619473e-001  1.8122616e+000  1.8122616e+000  2.0408812e+000 
 2.7334976e-001  9.8512936e-001  2.2836018e-001 -7.6519536e-005  2.2836019e-001  1.8002347e+000  1.8002347e+000  1.8263088e+000 
 2.7334976e-001  1.0000000e+000  0.0000000e+000  0.0000000e+000  0.0000000e+000  1.7945358e+000  1.7945358e+000  1.7945358e+000 
 3.1706923e-001  0.0000000e+000  0.0000000e+000  0.0000000e+000  0.0000000e+000  1.7825087e+000  1.7825087e+000  1.7825087e+000 
 3.1706923e-001  1.5686335e-002  2.2084557e-001  3.8567059e-006  2.2084557e-001  1.7869349e+000  1.7869349e+000  1.8113213e+000 
 3.1706923e-001  4.8627645e-002  6.5191776e-001  2.5686629e-002  6.5242362e-001  1.7962334e+000  1.7962334e+000  2.0090618e+000 
 3.1706923e-001  8.4863111e-002  9.8649138e-001  7.2290346e-002  9.8913658e-001  1.8019114e+000  1.8019114e+000  2.2911069e+000 
 3.1706923e-001  1.2472210e-001  1.1451724e+000  1.0130703e-001  1.1496446e+000  1.8078883e+000  1.8078883e+000  2.4687297e+000 
 3.1706923e-001  1.6856700e-001  1.1639270e+000  9.9960625e-002  1.1682115e+000  1.8145002e+000  1.8145002e+000  2.4968593e+000 
 3.1706923e-001  2.1679640e-001  1.1288992e+000  8.2401350e-002  1.1319026e+000  1.8193511e+000  1.8193511e+000  2.4599528e+000 
 3.1706923e-001  2.6984873e-001  1.0933204e+000  6.2270112e-002  1.0950922e+000  1.8217161e+000  1.8217161e+000  2.4213295e+000 
 3.1706923e-001  3.2820630e-001  1.0697529e+000  4.3630369e-002  1.0706424e+000  1.8222259e+000  1.8222259e+000  2.3953633e+000 
 3.1706923e-001  3.9239961e-001  1.0559462e+000  2.6097430e-002  1.0562687e+000  1.8218591e+000  1.8218591e+000  2.3797109e+000 
 3.1706923e-001  4.6301234e-001  1.0493215e+000  8.7463595e-003  1.0493580e+000  1.8213965e+000  1.8213965e+000  2.3719726e+000 