Variables = "x","y", "Velocity_x", "Velocity_y", "Velocity_whole value", "Pressure", "Absolute pressure", "Total pressure"
Zone i=62, j=22
 0.0000000e+000  0.0000000e+000  0.0000000e+000  0.0000000e+000  0.0000000e+000  2.9853988e+000  2.9853988e+000  2.9853988e+000 
 1.2291715e-002  0.0000000e+000  0.0000000e+000  0.0000000e+000  0.0000000e+000  2.7913094e+000  2.7913094e+000  2.7913094e+000 
 3.7736509e-002  0.0000000e+000  0.0000000e+000  0.0000000e+000  0.0000000e+000  2.3895295e+000  2.3895295e+000  2.3895295e+000 
 6.4963534e-002  0.0000000e+000  0.0000000e+000  0.0000000e+000  0.0000000e+000  2.1428354e+000  2.1428354e+000  2.1428354e+000 
 9.4095588e-002  0.0000000e+000  0.0000000e+000  0.0000000e+000  0.0000000e+000  1.9923542e+000  1.9923542e+000  1.9923542e+000 
 1.2526625e-001  0.0000000e+000  0.0000000e+000  0.0000000e+000  0.0000000e+000  1.8981018e+000  1.8981018e+000  1.8981018e+000 
 1.5861896e-001  0.0000000e+000  0.0000000e+000  0.0000000e+000  0.0000000e+000  1.8455037e+000  1.8455037e+000  1.8455037e+000 
 1.9430619e-001  0.0000000e+000  0.0000000e+000  0.0000000e+000  0.0000000e+000  1.8186719e+000  1.8186719e+000  1.8186719e+000 
 2.3249130e-001  0.0000000e+000  0.0000000e+000  0.0000000e+000  0.0000000e+000  1.8037636e+000  1.8037636e+000  1.8037636e+000 
 2.7334976e-001  0.0000000e+000  0.0000000e+000  0.0000000e+000  0.0000000e+000  1.7928052e+000  1.7928052e+000  1.7928052e+000 
 3.1706923e-001  0.0000000e+000  0.0000000e+000  0.0000000e+000  0.0000000e+000  1.7825083e+000  1.7825083e+000  1.7825083e+000 
 3.6384889e-001  0.0000000e+000  0.0000000e+000  0.0000000e+000  0.0000000e+000  1.7720002e+000  1.7720002e+000  1.7720002e+000 
 4.1390228e-001  0.0000000e+000  0.0000000e+000  0.0000000e+000  0.0000000e+000  1.7612435e+000  1.7612435e+000  1.7612435e+000 
 4.6745992e-001  0.0000000e+000  0.0000000e+000  0.0000000e+000  0.0000000e+000  1.7503098e+000  1.7503098e+000  1.7503098e+000 
 5.2476656e-001  0.0000000e+000  0.0000000e+000  0.0000000e+000  0.0000000e+000  1.7391920e+000  1.7391920e+000  1.7391920e+000 
 5.8608472e-001  0.0000000e+000  0.0000000e+000  0.0000000e+000  0.0000000e+000  1.7278231e+000  1.7278231e+000  1.7278231e+000 
 6.5169525e-001  0.0000000e+000  0.0000000e+000  0.0000000e+000  0.0000000e+000  1.7161213e+000  1.7161213e+000  1.7161213e+000 
 7.2189790e-001  0.0000000e+000  0.0000000e+000  0.0000000e+000  0.0000000e+000  1.7040123e+000  1.7040123e+000  1.7040123e+000 
 7.9701531e-001  0.0000000e+000  0.0000000e+000  0.0000000e+000  0.0000000e+000  1.6914353e+000  1.6914353e+000  1.6914353e+000 
 8.7739104e-001  0.0000000e+000  0.0000000e+000  0.0000000e+000  0.0000000e+000  1.6783435e+000  1.6783435e+000  1.6783435e+000 
 9.6339333e-001  0.0000000e+000  0.0000000e+000  0.0000000e+000  0.0000000e+000  1.6647005e+000  1.6647005e+000  1.6647005e+000 
 1.0554160e+000  0.0000000e+000  0.0000000e+000  0.0000000e+000  0.0000000e+000  1.6504796e+000  1.6504796e+000  1.6504796e+000 
 1.1538795e+000  0.0000000e+000  0.0000000e+000  0.0000000e+000  0.0000000e+000  1.6356606e+000  1.6356606e+000  1.6356606e+000 
 1.2592361e+000  0.0000000e+000  0.0000000e+000  0.0000000e+000  0.0000000e+000  1.6202278e+000  1.6202278e+000  1.6202278e+000 
 1.3719671e+000  0.0000000e+000  0.0000000e+000  0.0000000e+000  0.0000000e+000  1.6041672e+000  1.6041672e+000  1.6041672e+000 
 1.4925885e+000  0.0000000e+000  0.0000000e+000  0.0000000e+000  0.0000000e+000  1.5874646e+000  1.5874646e+000  1.5874646e+000 
 1.6216545e+000  0.0000000e+000  0.0000000e+000  0.0000000e+000  0.0000000e+000  1.5701030e+000  1.5701030e+000  1.5701030e+000 
 1.7597550e+000  0.0000000e+000  0.0000000e+000  0.0000000e+000  0.0000000e+000  1.5520636e+000  1.5520636e+000  1.5520636e+000 
 1.9075224e+000  0.0000000e+000  0.0000000e+000  0.0000000e+000  0.0000000e+000  1.5333228e+000  1.5333228e+000  1.5333228e+000 
 2.0656340e+000  0.0000000e+000  0.0000000e+000  0.0000000e+000  0.0000000e+000  1.5138538e+000  1.5138538e+000  1.5138538e+000 
 2.2348135e+000  0.0000000e+000  0.0000000e+000  0.0000000e+000  0.0000000e+000  1.4936252e+000  1.4936252e+000  1.4936252e+000 
 2.4158354e+000  0.0000000e+000  0.0000000e+000  0.0000000e+000  0.0000000e+000  1.4726014e+000  1.4726014e+000  1.4726014e+000 
 2.6095285e+000  0.0000000e+000  0.0000000e+000  0.0000000e+000  0.0000000e+000  1.4507430e+000  1.4507430e+000  1.4507430e+000 
 2.8167806e+000  0.0000000e+000  0.0000000e+000  0.0000000e+000  0.0000000e+000  1.4280053e+000  1.4280053e+000  1.4280053e+000 
 3.0385399e+000  0.0000000e+000  0.0000000e+000  0.0000000e+000  0.0000000e+000  1.4043394e+000  1.4043394e+000  1.4043394e+000 
 3.2758224e+000  0.0000000e+000  0.0000000e+000  0.0000000e+000  0.0000000e+000  1.3796912e+000  1.3796912e+000  1.3796912e+000 
 3.5297146e+000  0.0000000e+000  0.0000000e+000  0.0000000e+000  0.0000000e+000  1.3539997e+000  1.3539997e+000  1.3539997e+000 
 3.8013785e+000  0.0000000e+000  0.0000000e+000  0.0000000e+000  0.0000000e+000  1.3271970e+000  1.3271970e+000  1.3271970e+000 
 4.0920601e+000  0.0000000e+000  0.0000000e+000  0.0000000e+000  0.0000000e+000  1.2992059e+000  1.2992059e+000  1.2992059e+000 
 4.4030900e+000  0.0000000e+000  0.0000000e+000  0.0000000e+000  0.0000000e+000  1.2699410e+000  1.2699410e+000  1.2699410e+000 
 4.7358913e+000  0.0000000e+000  0.0000000e+000  0.0000000e+000  0.0000000e+000  1.2393045e+000  1.2393045e+000  1.2393045e+000 
 5.0919890e+000  0.0000000e+000  0.0000000e+000  0.0000000e+000  0.0000000e+000  1.2071866e+000  1.2071866e+000  1.2071866e+000 
 5.4730139e+000  0.0000000e+000  0.0000000e+000  0.0000000e+000  0.0000000e+000  1.1734636e+000  1.1734636e+000  1.1734636e+000 
 5.8807087e+000  0.0000000e+000  0.0000000e+000  0.0000000e+000  0.0000000e+000  1.1379962e+000  1.1379962e+000  1.1379962e+000 
 6.3169422e+000  0.0000000e+000  0.0000000e+000  0.0000000e+000  0.0000000e+000  1.1006298e+000  1.1006298e+000  1.1006298e+000 
 6.7837143e+000  0.0000000e+000  0.0000000e+000  0.0000000e+000  0.0000000e+000  1.0611924e+000  1.0611924e+000  1.0611924e+000 
 7.2831593e+000  0.0000000e+000  0.0000000e+000  0.0000000e+000  0.0000000e+000  1.0194956e+000  1.0194956e+000  1.0194956e+000 
 7.8175659e+000  0.0000000e+000  0.0000000e+000  0.0000000e+000  0.0000000e+000  9.7533315e-001  9.7533315e-001  9.7533315e-001 
 8.3893795e+000  0.0000000e+000  0.0000000e+000  0.0000000e+000  0.0000000e+000  9.2848259e-001  9.2848259e-001  9.2848259e-001 
 9.0012217e+000  0.0000000e+000  0.0000000e+000  0.0000000e+000  0.0000000e+000  8.7870383e-001  8.7870383e-001  8.7870383e-001 
 9.6558924e+000  0.0000000e+000  0.0000000e+000  0.0000000e+000  0.0000000e+000  8.2574141e-001  8.2574141e-001  8.2574141e-001 
 1.0356388e+001  0.0000000e+000  0.0000000e+000  0.0000000e+000  0.0000000e+000  7.6932317e-001  7.6932317e-001  7.6932317e-001 
 1.1105920e+001  0.0000000e+000  0.0000000e+000  0.0000000e+000  0.0000000e+000  7.0916164e-001  7.0916164e-001  7.0916164e-001 
 1.1907920e+001  0.0000000e+000  0.0000000e+000  0.0000000e+000  0.0000000e+000  6.4495265e-001  6.4495265e-001  6.4495265e-001 
 1.2766060e+001  0.0000000e+000  0.0000000e+000  0.0000000e+000  0.0000000e+000  5.7637715e-001  5.7637715e-001  5.7637715e-001 
 1.3684270e+001  0.0000000e+000  0.0000000e+000  0.0000000e+000  0.0000000e+000  5.0309801e-001  5.0309801e-001  5.0309801e-001 
 1.4666756e+001  0.0000000e+000  0.0000000e+000  0.0000000e+000  0.0000000e+000  4.2476064e-001  4.2476064e-001  4.2476064e-001 
 1.5718015e+001  0.0000000e+000  0.0000000e+000  0.0000000e+000  0.0000000e+000  3.4099004e-001  3.4099004e-001  3.4099004e-001 
 1.6842865e+001  0.0000000e+000  0.0000000e+000  0.0000000e+000  0.0000000e+000  2.5139081e-001  2.5139081e-001  2.5139081e-001 
 1.8046452e+001  0.0000000e+000  0.0000000e+000  0.0000000e+000  0.0000000e+000  1.5554260e-001  1.5554260e-001  1.5554260e-001 
 1.9334295e+001  0.0000000e+000  0.0000000e+000  0.0000000e+000  0.0000000e+000  5.2998420e-002  5.2998420e-002  5.2998420e-002 
 2.0000000e+001  0.0000000e+000  0.0000000e+000  0.0000000e+000  0.0000000e+000 -8.0845975e-006 -8.0845975e-006 -8.0845975e-006 
 0.0000000e+000  1.5686335e-002  1.0000000e+000  0.0000000e+000  1.0000000e+000  2.7603910e+000  2.7603910e+000  3.2603910e+000 
 1.2291715e-002  1.5686335e-002  9.4260460e-001  1.6154699e-001  9.5634764e-001  2.6149077e+000  2.6149077e+000  3.0722082e+000 
 3.7736509e-002  1.5686335e-002  8.0741125e-001  1.6489969e-001  8.2407820e-001  2.3137462e+000  2.3137462e+000  2.6532986e+000 
 6.4963534e-002  1.5686335e-002  6.5192741e-001  1.1069022e-001  6.6125762e-001  2.1168492e+000  2.1168492e+000  2.3354800e+000 
 9.4095588e-002  1.5686335e-002  5.1674902e-001  6.3605607e-002  5.2064884e-001  1.9899281e+000  1.9899281e+000  2.1254656e+000 
 1.2526625e-001  1.5686335e-002  4.1590634e-001  3.1823143e-002  4.1712204e-001  1.9070593e+000  1.9070593e+000  1.9940547e+000 
 1.5861896e-001  1.5686335e-002  3.4499121e-001  1.3331673e-002  3.4524870e-001  1.8576927e+000  1.8576927e+000  1.9172910e+000 
 1.9430619e-001  1.5686335e-002  2.9655504e-001  4.3628649e-003  2.9658714e-001  1.8297346e+000  1.8297346e+000  1.8737165e+000 
 2.3249130e-001  1.5686335e-002  2.6333788e-001  9.1438746e-004  2.6333946e-001  1.8123360e+000  1.8123360e+000  1.8470098e+000 
 2.7334976e-001  1.5686335e-002  2.3939186e-001  1.9584086e-005  2.3939186e-001  1.7990143e+000  1.7990143e+000  1.8276685e+000 
 3.1706923e-001  1.5686335e-002  2.2084546e-001  3.8923367e-006  2.2084546e-001  1.7869362e+000  1.7869362e+000  1.8113226e+000 
 3.6384889e-001  1.5686335e-002  2.0564045e-001  1.4206894e-004  2.0564049e-001  1.7752041e+000  1.7752041e+000  1.7963481e+000 
 4.1390228e-001  1.5686335e-002  1.9280340e-001  2.2538773e-004  1.9280353e-001  1.7636217e+000  1.7636217e+000  1.7822083e+000 
 4.6745992e-001  1.5686335e-002  1.8184617e-001  2.4488464e-004  1.8184634e-001  1.7521179e+000  1.7521179e+000  1.7686520e+000 
 5.2476656e-001  1.5686335e-002  1.7245175e-001  2.3223627e-004  1.7245190e-001  1.7405921e+000  1.7405921e+000  1.7554619e+000 
 5.8608472e-001  1.5686335e-002  1.6436277e-001  2.0946159e-004  1.6436291e-001  1.7289224e+000  1.7289224e+000  1.7424300e+000 
 6.5169525e-001  1.5686335e-002  1.5735927e-001  1.8599621e-004  1.5735938e-001  1.7169940e+000  1.7169940e+000  1.7293750e+000 
 7.2189790e-001  1.5686335e-002  1.5125611e-001  1.6464584e-004  1.5125620e-001  1.7047120e+000  1.7047120e+000  1.7161512e+000 
 7.9701531e-001  1.5686335e-002  1.4589950e-001  1.4581476e-004  1.4589958e-001  1.6920017e+000  1.6920017e+000  1.7026451e+000 
 8.7739104e-001  1.5686335e-002  1.4116213e-001  1.2947620e-004  1.4116219e-001  1.6788062e+000  1.6788062e+000  1.6887696e+000 
 9.6339333e-001  1.5686335e-002  1.3693865e-001  1.1541505e-004  1.3693869e-001  1.6650820e+000  1.6650820e+000  1.6744580e+000 
 1.0554160e+000  1.5686335e-002  1.3314201e-001  1.0334046e-004  1.3314205e-001  1.6507969e+000  1.6507969e+000  1.6596603e+000 
 1.1538795e+000  1.5686335e-002  1.2970148e-001  9.2768241e-005  1.2970151e-001  1.6359270e+000  1.6359270e+000  1.6443383e+000 
 1.2592361e+000  1.5686335e-002  1.2656006e-001  8.3360908e-005  1.2656009e-001  1.6204532e+000  1.6204532e+000  1.6284620e+000 
 1.3719671e+000  1.5686335e-002  1.2367284e-001  7.4885531e-005  1.2367286e-001  1.6043594e+000  1.6043594e+000  1.6120069e+000 
 1.4925885e+000  1.5686335e-002  1.2100449e-001  6.7155030e-005  1.2100451e-001  1.5876293e+000  1.5876293e+000  1.5949503e+000 
 1.6216545e+000  1.5686335e-002  1.1852770e-001  6.0177474e-005  1.1852772e-001  1.5702450e+000  1.5702450e+000  1.5772694e+000 
 1.7597550e+000  1.5686335e-002  1.1622121e-001  5.3823824e-005  1.1622123e-001  1.5521864e+000  1.5521864e+000  1.5589401e+000 
 1.9075224e+000  1.5686335e-002  1.1406842e-001  4.8043552e-005  1.1406843e-001  1.5334294e+000  1.5334294e+000  1.5399352e+000 
 2.0656340e+000  1.5686335e-002  1.1205636e-001  4.2815213e-005  1.1205637e-001  1.5139464e+000  1.5139464e+000  1.5202247e+000 
 2.2348135e+000  1.5686335e-002  1.1017434e-001  3.8135371e-005  1.1017434e-001  1.4937057e+000  1.4937057e+000  1.4997749e+000 
 2.4158354e+000  1.5686335e-002  1.0841368e-001  3.3681768e-005  1.0841369e-001  1.4726716e+000  1.4726716e+000  1.4785484e+000 
 2.6095285e+000  1.5686335e-002  1.0676723e-001  2.9822802e-005  1.0676724e-001  1.4508040e+000  1.4508040e+000  1.4565036e+000 
 2.8167806e+000  1.5686335e-002  1.0522902e-001  2.6291898e-005  1.0522902e-001  1.4280584e+000  1.4280584e+000  1.4335949e+000 
 3.0385399e+000  1.5686335e-002  1.0379428e-001  2.3234434e-005  1.0379428e-001  1.4043856e+000  1.4043856e+000  1.4097722e+000 
 3.2758224e+000  1.5686335e-002  1.0245895e-001  2.0368832e-005  1.0245895e-001  1.3797312e+000  1.3797312e+000  1.3849801e+000 
 3.5297146e+000  1.5686335e-002  1.0121986e-001  1.7822907e-005  1.0121986e-001  1.3540342e+000  1.3540342e+000  1.3591570e+000 
 3.8013785e+000  1.5686335e-002  1.0007463e-001  1.5456138e-005  1.0007463e-001  1.3272265e+000  1.3272265e+000  1.3322340e+000 
 4.0920601e+000  1.5686335e-002  9.9021360e-002  1.3365882e-005  9.9021360e-002  1.2992313e+000  1.2992313e+000  1.3041339e+000 
 4.4030900e+000  1.5686335e-002  9.8058276e-002  1.1445836e-005  9.8058276e-002  1.2699625e+000  1.2699625e+000  1.2747703e+000 
 4.7358913e+000  1.5686335e-002  9.7183995e-002  9.7425200e-006  9.7183995e-002  1.2393228e+000  1.2393228e+000  1.2440451e+000 
 5.0919890e+000  1.5686335e-002  9.6396916e-002  8.1474300e-006  9.6396916e-002  1.2072020e+000  1.2072020e+000  1.2118481e+000 
 5.4730139e+000  1.5686335e-002  9.5694907e-002  6.8657137e-006  9.5694907e-002  1.1734761e+000  1.1734761e+000  1.1780548e+000 
 5.8807087e+000  1.5686335e-002  9.5075563e-002  5.5714095e-006  9.5075563e-002  1.1380066e+000  1.1380066e+000  1.1425263e+000 
 6.3169422e+000  1.5686335e-002  9.4535641e-002  4.5041825e-006  9.4535641e-002  1.1006382e+000  1.1006382e+000  1.1051066e+000 
 6.7837143e+000  1.5686335e-002  9.4071209e-002  3.6641541e-006  9.4071209e-002  1.0611991e+000  1.0611991e+000  1.0656238e+000 
 7.2831593e+000  1.5686335e-002  9.3677521e-002  2.8727964e-006  9.3677521e-002  1.0195009e+000  1.0195009e+000  1.0238886e+000 
 7.8175659e+000  1.5686335e-002  9.3349017e-002  2.2555746e-006  9.3349017e-002  9.7533721e-001  9.7533721e-001  9.7969425e-001 
 8.3893795e+000  1.5686335e-002  9.3079515e-002  1.7353249e-006  9.3079515e-002  9.2848563e-001  9.2848563e-001  9.3281752e-001 
 9.0012217e+000  1.5686335e-002  9.2862479e-002  1.2189226e-006  9.2862479e-002  8.7870616e-001  8.7870616e-001  8.8301790e-001 
 9.6558924e+000  1.5686335e-002  9.2691176e-002  9.4119201e-007  9.2691176e-002  8.2574308e-001  8.2574308e-001  8.3003891e-001 
 1.0356388e+001  1.5686335e-002  9.2558756e-002  6.5601461e-007  9.2558756e-002  7.6932436e-001  7.6932436e-001  7.7360791e-001 
 1.1105920e+001  1.5686335e-002  9.2458718e-002  4.6967426e-007  9.2458718e-002  7.0916241e-001  7.0916241e-001  7.1343672e-001 
 1.1907920e+001  1.5686335e-002  9.2384927e-002  3.1551704e-007  9.2384927e-002  6.4495325e-001  6.4495325e-001  6.4922076e-001 
 1.2766060e+001  1.5686335e-002  9.2331946e-002  2.2521159e-007  9.2331946e-002  5.7637751e-001  5.7637751e-001  5.8064008e-001 
 1.3684270e+001  1.5686335e-002  9.2294864e-002  1.5024371e-007  9.2294864e-002  5.0309825e-001  5.0309825e-001  5.0735742e-001 
 1.4666756e+001  1.5686335e-002  9.2269741e-002  7.2151494e-008  9.2269741e-002  4.2476079e-001  4.2476079e-001  4.2901763e-001 
 1.5718015e+001  1.5686335e-002  9.2253208e-002  5.2924019e-008  9.2253208e-002  3.4099013e-001  3.4099013e-001  3.4524545e-001 
 1.6842865e+001  1.5686335e-002  9.2242680e-002  4.5057948e-008  9.2242680e-002  2.5139084e-001  2.5139084e-001  2.5564522e-001 
 1.8046452e+001  1.5686335e-002  9.2236437e-002  1.5375441e-008  9.2236437e-002  1.5554263e-001  1.5554263e-001  1.5979640e-001 
 1.9334295e+001  1.5686335e-002  9.2231631e-002 -7.3908126e-008  9.2231631e-002  5.2998375e-002  5.2998375e-002  5.7251710e-002 
 2.0000000e+001  1.5686335e-002  9.2231631e-002 -6.6044350e-008  9.2231631e-002  0.0000000e+000  0.0000000e+000  4.2533367e-003 
 0.0000000e+000  4.8627645e-002  1.0000000e+000  0.0000000e+000  1.0000000e+000  2.2878747e+000  2.2878747e+000  2.7878747e+000 
 1.2291715e-002  4.8627645e-002  1.0348698e+000  1.0466945e-001  1.0401496e+000  2.2444644e+000  2.2444644e+000  2.7854199e+000 
 3.7736509e-002  4.8627645e-002  1.0812386e+000  2.0041651e-001  1.0996562e+000  2.1546016e+000  2.1546016e+000  2.7592235e+000 
 6.4963534e-002  4.8627645e-002  1.0835005e+000  2.1410635e-001  1.1044523e+000  2.0622783e+000  2.0622783e+000  2.6721857e+000 
 9.4095588e-002  4.8627645e-002  1.0454183e+000  1.8678385e-001  1.0619735e+000  1.9848334e+000  1.9848334e+000  2.5487270e+000 
 1.2526625e-001  4.8627645e-002  9.8214900e-001  1.4442395e-001  9.9271089e-001  1.9258701e+000  1.9258701e+000  2.4186075e+000 
 1.5861896e-001  4.8627645e-002  9.0796030e-001  1.0322957e-001  9.1380972e-001  1.8832897e+000  1.8832897e+000  2.3008139e+000 
 1.9430619e-001  4.8627645e-002  8.3319640e-001  7.1012311e-002  8.3621705e-001  1.8529660e+000  1.8529660e+000  2.2025955e+000 
 2.3249130e-001  4.8627645e-002  7.6418400e-001  4.8918191e-002  7.6574808e-001  1.8303378e+000  1.8303378e+000  2.1235228e+000 
 2.7334976e-001  4.8627645e-002  7.0366836e-001  3.4746375e-002  7.0452571e-001  1.8120534e+000  1.8120534e+000  2.0602317e+000 
 3.1706923e-001  4.8627645e-002  6.5191764e-001  2.5686588e-002  6.5242350e-001  1.7962347e+000  1.7962347e+000  2.0090630e+000 
 3.6384889e-001  4.8627645e-002  6.0798961e-001  1.9613585e-002  6.0830587e-001  1.7819322e+000  1.7819322e+000  1.9669503e+000 
 4.1390228e-001  4.8627645e-002  5.7062072e-001  1.5282032e-002  5.7082534e-001  1.7686158e+000  1.7686158e+000  1.9315366e+000 
 4.6745992e-001  4.8627645e-002  5.3865051e-001  1.2053326e-002  5.3878534e-001  1.7559146e+000  1.7559146e+000  1.9010594e+000 
 5.2476656e-001  4.8627645e-002  5.1113456e-001  9.5931962e-003  5.1122457e-001  1.7435321e+000  1.7435321e+000  1.8742074e+000 
 5.8608472e-001  4.8627645e-002  4.8732257e-001  7.6989876e-003  4.8738340e-001  1.7312306e+000  1.7312306e+000  1.8500019e+000 
 6.5169525e-001  4.8627645e-002  4.6661055e-001  6.2292591e-003  4.6665213e-001  1.7188265e+000  1.7188265e+000  1.8277086e+000 
 7.2189790e-001  4.8627645e-002  4.4850242e-001  5.0810347e-003  4.4853121e-001  1.7061813e+000  1.7061813e+000  1.8067714e+000 
 7.9701531e-001  4.8627645e-002  4.3258253e-001  4.1783643e-003  4.3260270e-001  1.6931908e+000  1.6931908e+000  1.7867633e+000 
 8.7739104e-001  4.8627645e-002  4.1850096e-001  3.4648252e-003  4.1851529e-001  1.6797774e+000  1.6797774e+000  1.7673550e+000 
 9.6339333e-001  4.8627645e-002  4.0596178e-001  2.8976186e-003  4.0597212e-001  1.6658827e+000  1.6658827e+000  1.7482893e+000 
 1.0554160e+000  4.8627645e-002  3.9471608e-001  2.4437904e-003  3.9472365e-001  1.6514630e+000  1.6514630e+000  1.7293664e+000 
 1.1538795e+000  4.8627645e-002  3.8455713e-001  2.0774533e-003  3.8456273e-001  1.6364861e+000  1.6364861e+000  1.7104303e+000 
 1.2592361e+000  4.8627645e-002  3.7531507e-001  1.7786613e-003  3.7531927e-001  1.6209264e+000  1.6209264e+000  1.6913587e+000 
 1.3719671e+000  4.8627645e-002  3.6685297e-001  1.5322806e-003  3.6685616e-001  1.6047627e+000  1.6047627e+000  1.6720544e+000 
 1.4925885e+000  4.8627645e-002  3.5906130e-001  1.3265923e-003  3.5906374e-001  1.5879751e+000  1.5879751e+000  1.6524385e+000 
 1.6216545e+000  4.8627645e-002  3.5185385e-001  1.1529296e-003  3.5185573e-001  1.5705432e+000  1.5705432e+000  1.6324444e+000 
 1.7597550e+000  4.8627645e-002  3.4516284e-001  1.0047364e-003  3.4516430e-001  1.5524442e+000  1.5524442e+000  1.6120135e+000 
 1.9075224e+000  4.8627645e-002  3.3893484e-001  8.7721291e-004  3.3893597e-001  1.5336533e+000  1.5336533e+000  1.5910921e+000 
 2.0656340e+000  4.8627645e-002  3.3312786e-001  7.6664682e-004  3.3312875e-001  1.5141410e+000  1.5141410e+000  1.5696284e+000 
 2.2348135e+000  4.8627645e-002  3.2770756e-001  6.7020982e-004  3.2770824e-001  1.4938750e+000  1.4938750e+000  1.5475714e+000 
 2.4158354e+000  4.8627645e-002  3.2264659e-001  5.8616791e-004  3.2264712e-001  1.4728190e+000  1.4728190e+000  1.5248696e+000 
 2.6095285e+000  4.8627645e-002  3.1792217e-001  5.1203487e-004  3.1792259e-001  1.4509321e+000  1.4509321e+000  1.5014695e+000 
 2.8167806e+000  4.8627645e-002  3.1351548e-001  4.4685934e-004  3.1351581e-001  1.4281697e+000  1.4281697e+000  1.4773158e+000 
 3.0385399e+000  4.8627645e-002  3.0941138e-001  3.8911728e-004  3.0941162e-001  1.4044825e+000  1.4044825e+000  1.4523503e+000 
 3.2758224e+000  4.8627645e-002  3.0559722e-001  3.3803185e-004  3.0559739e-001  1.3798150e+000  1.3798150e+000  1.4265099e+000 
 3.5297146e+000  4.8627645e-002  3.0206302e-001  2.9266856e-004  3.0206317e-001  1.3541065e+000  1.3541065e+000  1.3997276e+000 
 3.8013785e+000  4.8627645e-002  2.9880100e-001  2.5223597e-004  2.9880112e-001  1.3272886e+000  1.3272886e+000  1.3719296e+000 
 4.0920601e+000  4.8627645e-002  2.9580459e-001  2.1620160e-004  2.9580468e-001  1.2992845e+000  1.2992845e+000  1.3430346e+000 
 4.4030900e+000  4.8627645e-002  2.9306808e-001  1.8422196e-004  2.9306814e-001  1.2700077e+000  1.2700077e+000  1.3129522e+000 
 4.7358913e+000  4.8627645e-002  2.9058677e-001  1.5572856e-004  2.9058680e-001  1.2393609e+000  1.2393609e+000  1.2815813e+000 
 5.0919890e+000  4.8627645e-002  2.8835529e-001  1.3044142e-004  2.8835532e-001  1.2072339e+000  1.2072339e+000  1.2488083e+000 
 5.4730139e+000  4.8627645e-002  2.8636700e-001  1.0816714e-004  2.8636703e-001  1.1735024e+000  1.1735024e+000  1.2145054e+000 
 5.8807087e+000  4.8627645e-002  2.8461441e-001  8.8669920e-005  2.8461441e-001  1.1380283e+000  1.1380283e+000  1.1785309e+000 
 6.3169422e+000  4.8627645e-002  2.8308788e-001  7.1921837e-005  2.8308788e-001  1.1006556e+000  1.1006556e+000  1.1407249e+000 
 6.7837143e+000  4.8627645e-002  2.8177562e-001  5.7285735e-005  2.8177562e-001  1.0612130e+000  1.0612130e+000  1.1009117e+000 
 7.2831593e+000  4.8627645e-002  2.8066388e-001  4.5151373e-005  2.8066388e-001  1.0195118e+000  1.0195118e+000  1.0588980e+000 
 7.8175659e+000  4.8627645e-002  2.7973673e-001  3.4884419e-005  2.7973673e-001  9.7534573e-001  9.7534573e-001  1.0144720e+000 
 8.3893795e+000  4.8627645e-002  2.7897644e-001  2.6544380e-005  2.7897644e-001  9.2849207e-001  9.2849207e-001  9.6740597e-001 
 9.0012217e+000  4.8627645e-002  2.7836436e-001  1.9853949e-005  2.7836436e-001  8.7871099e-001  8.7871099e-001  9.1745436e-001 
 9.6558924e+000  4.8627645e-002  2.7788135e-001  1.4540617e-005  2.7788135e-001  8.2574660e-001  8.2574660e-001  8.6435562e-001 
 1.0356388e+001  4.8627645e-002  2.7750805e-001  1.0415964e-005  2.7750805e-001  7.6932687e-001  7.6932687e-001  8.0783224e-001 
 1.1105920e+001  4.8627645e-002  2.7722609e-001  7.2453590e-006  2.7722609e-001  7.0916408e-001  7.0916408e-001  7.4759126e-001 
 1.1907920e+001  4.8627645e-002  2.7701816e-001  4.9105815e-006  2.7701816e-001  6.4495444e-001  6.4495444e-001  6.8332398e-001 
 1.2766060e+001  4.8627645e-002  2.7686879e-001  3.2390301e-006  2.7686879e-001  5.7637829e-001  5.7637829e-001  6.1470646e-001 
 1.3684270e+001  4.8627645e-002  2.7676430e-001  2.0875118e-006  2.7676430e-001  5.0309879e-001  5.0309879e-001  5.4139805e-001 
 1.4666756e+001  4.8627645e-002  2.7669352e-001  1.3454259e-006  2.7669352e-001  4.2476109e-001  4.2476109e-001  4.6304074e-001 
 1.5718015e+001  4.8627645e-002  2.7664688e-001  8.1863789e-007  2.7664688e-001  3.4099030e-001  3.4099030e-001  3.7925705e-001 
 1.6842865e+001  4.8627645e-002  2.7661723e-001  4.9132518e-007  2.7661723e-001  2.5139093e-001  2.5139093e-001  2.8964949e-001 
 1.8046452e+001  4.8627645e-002  2.7659962e-001  2.8775071e-007  2.7659962e-001  1.5554269e-001  1.5554269e-001  1.9379637e-001 
 1.9334295e+001  4.8627645e-002  2.7658609e-001  1.7619593e-007  2.7658609e-001  5.2998286e-002  5.2998286e-002  9.1248214e-002 
 2.0000000e+001  4.8627645e-002  2.7658609e-001  1.7658915e-007  2.7658609e-001  0.0000000e+000  0.0000000e+000  3.8249932e-002 
 0.0000000e+000  8.4863111e-002  1.0000000e+000  0.0000000e+000  1.0000000e+000  2.1081116e+000  2.1081116e+000  2.6081116e+000 
 1.2291715e-002  8.4863111e-002  1.0083761e+000  4.0675178e-002  1.0091962e+000  2.0996349e+000  2.0996349e+000  2.6088734e+000 
 3.7736509e-002  8.4863111e-002  1.0442791e+000  1.0958730e-001  1.0500134e+000  2.0820875e+000  2.0820875e+000  2.6333516e+000 
 6.4963534e-002  8.4863111e-002  1.0928836e+000  1.5460947e-001  1.1037656e+000  2.0327251e+000  2.0327251e+000  2.6418743e+000 
 9.4095588e-002  8.4863111e-002  1.1296571e+000  1.7353354e-001  1.1429082e+000  1.9768596e+000  1.9768596e+000  2.6299791e+000 
 1.2526625e-001  8.4863111e-002  1.1440533e+000  1.7097385e-001  1.1567584e+000  1.9287943e+000  1.9287943e+000  2.5978394e+000 
 1.5861896e-001  8.4863111e-002  1.1365317e+000  1.5481994e-001  1.1470281e+000  1.8901211e+000  1.8901211e+000  2.5479579e+000 
 1.9430619e-001  8.4863111e-002  1.1115508e+000  1.3274805e-001  1.1194495e+000  1.8601725e+000  1.8601725e+000  2.4867561e+000 
 2.3249130e-001  8.4863111e-002  1.0748404e+000  1.1007482e-001  1.0804621e+000  1.8370504e+000  1.8370504e+000  2.4207497e+000 
 2.7334976e-001  8.4863111e-002  1.0317926e+000  8.9590512e-002  1.0356749e+000  1.8182606e+000  1.8182606e+000  2.3545718e+000 
 3.1706923e-001  8.4863111e-002  9.8649132e-001  7.2290309e-002  9.8913652e-001  1.8019127e+000  1.8019127e+000  2.2911081e+000 
 3.6384889e-001  8.4863111e-002  9.4161010e-001  5.8171436e-002  9.4340527e-001  1.7869737e+000  1.7869737e+000  2.2319806e+000 
 4.1390228e-001  8.4863111e-002  8.9874548e-001  4.6821732e-002  8.9996427e-001  1.7729341e+000  1.7729341e+000  2.1779020e+000 
 4.6745992e-001  8.4863111e-002  8.5877419e-001  3.7748970e-002  8.5960346e-001  1.7594993e+000  1.7594993e+000  2.1289585e+000 
 5.2476656e-001  8.4863111e-002  8.2210648e-001  3.0511612e-002  8.2267249e-001  1.7464424e+000  1.7464424e+000  2.0848374e+000 
 5.8608472e-001  8.4863111e-002  7.8884220e-001  2.4743926e-002  7.8923017e-001  1.7335631e+000  1.7335631e+000  2.0450053e+000 
 6.5169525e-001  8.4863111e-002  7.5887871e-001  2.0149911e-002  7.5914615e-001  1.7206851e+000  1.7206851e+000  2.0088365e+000 
 7.2189790e-001  8.4863111e-002  7.3199093e-001  1.6491076e-002  7.3217666e-001  1.7076615e+000  1.7076615e+000  1.9757029e+000 
 7.9701531e-001  8.4863111e-002  7.0788962e-001  1.3575450e-002  7.0801979e-001  1.6943729e+000  1.6943729e+000  1.9450189e+000 
 8.7739104e-001  8.4863111e-002  6.8626529e-001  1.1248895e-002  6.8635750e-001  1.6807259e+000  1.6807259e+000  1.9162692e+000 
 9.6339333e-001  8.4863111e-002  6.6681272e-001  9.3876440e-003  6.6687882e-001  1.6666486e+000  1.6666486e+000  1.8890123e+000 
 1.0554160e+000  8.4863111e-002  6.4924639e-001  7.8924457e-003  6.4929438e-001  1.6520863e+000  1.6520863e+000  1.8628778e+000 
 1.1538795e+000  8.4863111e-002  6.3330984e-001  6.6841459e-003  6.3334513e-001  1.6369976e+000  1.6369976e+000  1.8375607e+000 
 1.2592361e+000  8.4863111e-002  6.1877847e-001  5.6997514e-003  6.1880469e-001  1.6213497e+000  1.6213497e+000  1.8128093e+000 
 1.3719671e+000  8.4863111e-002  6.0546136e-001  4.8902235e-003  6.0548109e-001  1.6051164e+000  1.6051164e+000  1.7884201e+000 
 1.4925885e+000  8.4863111e-002  5.9319949e-001  4.2173536e-003  5.9321451e-001  1.5882729e+000  1.5882729e+000  1.7642246e+000 
 1.6216545e+000  8.4863111e-002  5.8186293e-001  3.6523666e-003  5.8187437e-001  1.5707958e+000  1.5707958e+000  1.7400846e+000 
 1.7597550e+000  8.4863111e-002  5.7134706e-001  3.1728786e-003  5.7135588e-001  1.5526597e+000  1.5526597e+000  1.7158835e+000 
 1.9075224e+000  8.4863111e-002  5.6156754e-001  2.7625717e-003  5.6157434e-001  1.5338380e+000  1.5338380e+000  1.6915209e+000 
 2.0656340e+000  8.4863111e-002  5.5245709e-001  2.4085331e-003  5.5246234e-001  1.5143000e+000  1.5143000e+000  1.6669073e+000 
 2.2348135e+000  8.4863111e-002  5.4396093e-001  2.1016579e-003  5.4396498e-001  1.4940121e+000  1.4940121e+000  1.6419611e+000 
 2.4158354e+000  8.4863111e-002  5.3603500e-001  1.8338165e-003  5.3603816e-001  1.4729373e+000  1.4729373e+000  1.6166058e+000 
 2.6095285e+000  8.4863111e-002  5.2864289e-001  1.5994094e-003  5.2864534e-001  1.4510344e+000  1.4510344e+000  1.5907674e+000 
 2.8167806e+000  8.4863111e-002  5.2175438e-001  1.3933316e-003  5.2175623e-001  1.4282581e+000  1.4282581e+000  1.5643729e+000 
 3.0385399e+000  8.4863111e-002  5.1534528e-001  1.2115614e-003  5.1534671e-001  1.4045588e+000  1.4045588e+000  1.5373499e+000 
 3.2758224e+000  8.4863111e-002  5.0939536e-001  1.0508675e-003  5.0939643e-001  1.3798807e+000  1.3798807e+000  1.5096231e+000 
 3.5297146e+000  8.4863111e-002  5.0388855e-001  9.0841617e-004  5.0388938e-001  1.3541629e+000  1.3541629e+000  1.4811152e+000 
 3.8013785e+000  8.4863111e-002  4.9881154e-001  7.8190718e-004  4.9881217e-001  1.3273369e+000  1.3273369e+000  1.4517437e+000 
 4.0920601e+000  8.4863111e-002  4.9415356e-001  6.6951249e-004  4.9415401e-001  1.2993257e+000  1.2993257e+000  1.4214197e+000 
 4.4030900e+000  8.4863111e-002  4.8990488e-001  5.6947541e-004  4.8990521e-001  1.2700427e+000  1.2700427e+000  1.3900462e+000 
 4.7358913e+000  8.4863111e-002  4.8605695e-001  4.8078821e-004  4.8605719e-001  1.2393903e+000  1.2393903e+000  1.3575161e+000 
 5.0919890e+000  8.4863111e-002  4.8260039e-001  4.0236011e-004  4.8260057e-001  1.2072585e+000  1.2072585e+000  1.3237101e+000 
 5.4730139e+000  8.4863111e-002  4.7952408e-001  3.3344483e-004  4.7952420e-001  1.1735227e+000  1.1735227e+000  1.2884945e+000 
 5.8807087e+000  8.4863111e-002  4.7681516e-001  2.7322900e-004  4.7681525e-001  1.1380447e+000  1.1380447e+000  1.2517211e+000 
 6.3169422e+000  8.4863111e-002  4.7445792e-001  2.2111833e-004  4.7445798e-001  1.1006689e+000  1.1006689e+000  1.2132241e+000 