Variables = "x","y","z", "Shear Stress_x", "Shear Stress_y", "Shear Stress_z", "Shear Stress_circ", "Skin Friction"
Zone i=1, j=22, k=2
 0.0000000e+000  0.0000000e+000  0.0000000e+000  0.0000000e+000  0.0000000e+000  0.0000000e+000  0.0000000e+000  3.8198042e-001 
 0.0000000e+000  1.5686335e-002  0.0000000e+000  2.8025969e-045  6.5121142e-041  0.0000000e+000 -2.8025969e-045 -4.3123621e-002 
 0.0000000e+000  4.8627645e-002  0.0000000e+000  0.0000000e+000  0.0000000e+000  0.0000000e+000  0.0000000e+000  2.0835048e-002 
 0.0000000e+000  8.4863111e-002  0.0000000e+000  2.8025969e-045  6.5121142e-041  0.0000000e+000 -2.8025969e-045  6.4198757e-003 
 0.0000000e+000  1.2472210e-001  0.0000000e+000  0.0000000e+000  0.0000000e+000  0.0000000e+000  0.0000000e+000  3.6996540e-003 
 0.0000000e+000  1.6856700e-001  0.0000000e+000  2.8025969e-045  6.5121142e-041  0.0000000e+000 -2.8025969e-045  2.2904959e-003 
 0.0000000e+000  2.1679640e-001  0.0000000e+000  0.0000000e+000  0.0000000e+000  0.0000000e+000  0.0000000e+000  1.5107963e-003 
 0.0000000e+000  2.6984873e-001  0.0000000e+000  2.8025969e-045  6.5121142e-041  0.0000000e+000 -2.8025969e-045  9.9606276e-004 
 0.0000000e+000  3.2820630e-001  0.0000000e+000  0.0000000e+000  0.0000000e+000  0.0000000e+000  0.0000000e+000  6.3414790e-004 
 0.0000000e+000  3.9239961e-001  0.0000000e+000  2.8025969e-045  6.5121142e-041  0.0000000e+000 -2.8025969e-045  3.5622445e-004 
 0.0000000e+000  4.6301234e-001  0.0000000e+000  0.0000000e+000  0.0000000e+000  0.0000000e+000  0.0000000e+000  1.2399036e-004 
 0.0000000e+000  5.3838348e-001  0.0000000e+000  2.8025969e-045  6.5121142e-041  0.0000000e+000 -2.8025969e-045  1.2366861e-004 
 0.0000000e+000  6.1131215e-001  0.0000000e+000  0.0000000e+000  0.0000000e+000  0.0000000e+000  0.0000000e+000  3.6400466e-004 
 0.0000000e+000  6.7694795e-001  0.0000000e+000  2.8025969e-045  6.5121142e-041  0.0000000e+000 -2.8025969e-045  6.5475976e-004 
 0.0000000e+000  7.3602021e-001  0.0000000e+000  0.0000000e+000  0.0000000e+000  0.0000000e+000  0.0000000e+000  1.0374897e-003 
 0.0000000e+000  7.8918511e-001  0.0000000e+000  2.8025969e-045  6.5121142e-041  0.0000000e+000 -2.8025969e-045  1.5879808e-003 
 0.0000000e+000  8.3703363e-001  0.0000000e+000  0.0000000e+000  0.0000000e+000  0.0000000e+000  0.0000000e+000  2.4370537e-003 
 0.0000000e+000  8.8009727e-001  0.0000000e+000  2.8025969e-045  6.5121142e-041  0.0000000e+000 -2.8025969e-045  3.9835316e-003 
 0.0000000e+000  9.1885448e-001  0.0000000e+000  0.0000000e+000  0.0000000e+000  0.0000000e+000  0.0000000e+000  7.0842700e-003 
 0.0000000e+000  9.5373595e-001  0.0000000e+000  2.8025969e-045  6.5121142e-041  0.0000000e+000 -2.8025969e-045  2.3332879e-002 
 0.0000000e+000  9.8512936e-001  0.0000000e+000  0.0000000e+000  0.0000000e+000  0.0000000e+000  0.0000000e+000 -4.6522729e-002 
 0.0000000e+000  1.0000000e+000  0.0000000e+000  2.8025969e-045  6.5121142e-041  0.0000000e+000 -2.8025969e-045  4.0357229e-001 
 0.0000000e+000  0.0000000e+000  1.0000000e+000  3.7826011e-001  4.6899757e-005  0.0000000e+000  0.0000000e+000  3.8198042e-001 
 0.0000000e+000  1.5686335e-002  1.0000000e+000  5.8415227e-002 -1.1443048e-004  0.0000000e+000 -5.8415227e-002 -4.3123621e-002 
 0.0000000e+000  4.8627645e-002  1.0000000e+000 -1.6448380e-002  5.5912373e-005  0.0000000e+000  1.6448380e-002  2.0835048e-002 
 0.0000000e+000  8.4863111e-002  1.0000000e+000  3.9863482e-002 -3.5968487e-004  0.0000000e+000 -3.9863482e-002  6.4198757e-003 
 0.0000000e+000  1.2472210e-001  1.0000000e+000  1.2144241e-002  7.6922966e-005  0.0000000e+000 -1.2144241e-002  3.6996540e-003 
 0.0000000e+000  1.6856700e-001  1.0000000e+000  1.6929757e-002 -6.5022550e-004  0.0000000e+000 -1.6929757e-002  2.2904959e-003 
 0.0000000e+000  2.1679640e-001  1.0000000e+000  1.2492742e-003  1.1446275e-004  0.0000000e+000 -1.2492742e-003  1.5107963e-003 
 0.0000000e+000  2.6984873e-001  1.0000000e+000  6.2971516e-003 -1.0311563e-003  0.0000000e+000 -6.2971516e-003  9.9606276e-004 
 0.0000000e+000  3.2820630e-001  1.0000000e+000  6.4358412e-004  1.8534005e-004  0.0000000e+000 -6.4358412e-004  6.3414790e-004 
 0.0000000e+000  3.9239961e-001  1.0000000e+000  3.6432457e-003 -1.5771278e-003  0.0000000e+000 -3.6432457e-003  3.5622445e-004 
 0.0000000e+000  4.6301234e-001  1.0000000e+000  2.7603382e-004  3.0731634e-004  0.0000000e+000 -2.7603382e-004  1.2399036e-004 
 0.0000000e+000  5.3838348e-001  1.0000000e+000  2.2738022e-003 -2.4175995e-003  0.0000000e+000 -2.2738022e-003  1.2366861e-004 
 0.0000000e+000  6.1131215e-001  1.0000000e+000  1.7318089e-004  7.1547570e-004  0.0000000e+000 -1.7318089e-004  3.6400466e-004 
 0.0000000e+000  6.7694795e-001  1.0000000e+000  1.5008376e-003 -3.9187521e-003  0.0000000e+000 -1.5008376e-003  6.5475976e-004 
 0.0000000e+000  7.3602021e-001  1.0000000e+000  1.0842099e-004  1.5147973e-003  0.0000000e+000 -1.0842099e-004  1.0374897e-003 
 0.0000000e+000  7.8918511e-001  1.0000000e+000  9.9014444e-004 -6.9204238e-003  0.0000000e+000 -9.9014444e-004  1.5879808e-003 
 0.0000000e+000  8.3703363e-001  1.0000000e+000  7.4864562e-005  1.3869740e-002  0.0000000e+000 -7.4864562e-005  2.4370537e-003 
 0.0000000e+000  8.8009727e-001  1.0000000e+000  6.2971329e-004 -1.8763091e-002  0.0000000e+000 -6.2971329e-004  3.9835316e-003 
 0.0000000e+000  9.1885448e-001  1.0000000e+000  5.4963919e-005 -1.9023906e-002  0.0000000e+000 -5.4963919e-005  7.0842700e-003 
 0.0000000e+000  9.5373595e-001  1.0000000e+000  3.5195859e-004 -4.2455334e-002  0.0000000e+000 -3.5195859e-004  2.3332879e-002 
 0.0000000e+000  9.8512936e-001  1.0000000e+000  4.6857385e-005  3.9879864e-001  0.0000000e+000 -4.6857385e-005 -4.6522729e-002 
 0.0000000e+000  1.0000000e+000  1.0000000e+000  1.1479545e-004 -6.6677675e-002  0.0000000e+000 -1.1479545e-004  4.0357229e-001 
Zone i=1, j=22, k=2
 2.0000000e+001  0.0000000e+000  0.0000000e+000  0.0000000e+000  5.1147394e-043  0.0000000e+000  5.1147394e-043  2.6967905e-002 
 2.0000000e+001  1.5686335e-002  0.0000000e+000  0.0000000e+000  0.0000000e+000  0.0000000e+000  0.0000000e+000  2.6584266e-002 
 2.0000000e+001  4.8627645e-002  0.0000000e+000  0.0000000e+000  5.1147394e-043  0.0000000e+000  5.1147243e-043  2.4358181e-002 
 2.0000000e+001  8.4863111e-002  0.0000000e+000  0.0000000e+000  0.0000000e+000  0.0000000e+000  0.0000000e+000  2.2305792e-002 
 2.0000000e+001  1.2472210e-001  0.0000000e+000  0.0000000e+000  5.1147394e-043  0.0000000e+000  5.1146399e-043  2.0031575e-002 
 2.0000000e+001  1.6856700e-001  0.0000000e+000  0.0000000e+000  0.0000000e+000  0.0000000e+000  0.0000000e+000  1.7514301e-002 
 2.0000000e+001  2.1679640e-001  0.0000000e+000  0.0000000e+000  5.1147394e-043  0.0000000e+000  5.1144389e-043  1.4744828e-002 
 2.0000000e+001  2.6984873e-001  0.0000000e+000  0.0000000e+000  0.0000000e+000  0.0000000e+000  0.0000000e+000  1.1736047e-002 
 2.0000000e+001  3.2820630e-001  0.0000000e+000  0.0000000e+000  5.1147394e-043  0.0000000e+000  5.1140508e-043  8.5292524e-003 
 2.0000000e+001  3.9239961e-001  0.0000000e+000  0.0000000e+000  0.0000000e+000  0.0000000e+000  0.0000000e+000  5.1779100e-003 
 2.0000000e+001  4.6301234e-001  0.0000000e+000  0.0000000e+000  5.1147394e-043  0.0000000e+000  5.1133693e-043  1.6912061e-003 
 2.0000000e+001  5.3838348e-001  0.0000000e+000  0.0000000e+000  0.0000000e+000  0.0000000e+000  0.0000000e+000  1.7521876e-003 
 2.0000000e+001  6.1131215e-001  0.0000000e+000  0.0000000e+000  5.1147394e-043  0.0000000e+000  5.1123518e-043  5.3594252e-003 
 2.0000000e+001  6.7694795e-001  0.0000000e+000  0.0000000e+000  0.0000000e+000  0.0000000e+000  0.0000000e+000  8.7997196e-003 
 2.0000000e+001  7.3602021e-001  0.0000000e+000  0.0000000e+000  5.1147394e-043  0.0000000e+000  5.1112794e-043  1.2059693e-002 
 2.0000000e+001  7.8918511e-001  0.0000000e+000  0.0000000e+000  0.0000000e+000  0.0000000e+000  0.0000000e+000  1.5083688e-002 
 2.0000000e+001  8.3703363e-001  0.0000000e+000  0.0000000e+000  5.1147394e-043  0.0000000e+000  5.1102659e-043  1.7835082e-002 
 2.0000000e+001  8.8009727e-001  0.0000000e+000  0.0000000e+000  0.0000000e+000  0.0000000e+000  0.0000000e+000  2.0308575e-002 
 2.0000000e+001  9.1885448e-001  0.0000000e+000  0.0000000e+000  5.1147394e-043  0.0000000e+000  5.1093500e-043  2.2520445e-002 
 2.0000000e+001  9.5373595e-001  0.0000000e+000  0.0000000e+000  0.0000000e+000  0.0000000e+000  0.0000000e+000  2.4497081e-002 
 2.0000000e+001  9.8512936e-001  0.0000000e+000  0.0000000e+000  5.1147394e-043  0.0000000e+000  5.1085460e-043  2.6817130e-002 
 2.0000000e+001  1.0000000e+000  0.0000000e+000  0.0000000e+000  0.0000000e+000  0.0000000e+000  0.0000000e+000  2.6964232e-002 
 2.0000000e+001  0.0000000e+000  1.0000000e+000  2.6967904e-002  1.4984669e-005  0.0000000e+000  1.4984669e-005  2.6967905e-002 
 2.0000000e+001  1.5686335e-002  1.0000000e+000 -6.2286955e-007  1.7521236e-003  0.0000000e+000  1.7521235e-003  2.6584266e-002 
 2.0000000e+001  4.8627645e-002  1.0000000e+000 -1.6250967e-006  9.1820420e-006  0.0000000e+000  9.1859661e-006  2.4358181e-002 
 2.0000000e+001  8.4863111e-002  1.0000000e+000 -2.6584266e-002  5.3594173e-003  0.0000000e+000  5.4721692e-003  2.2305792e-002 
 2.0000000e+001  1.2472210e-001  1.0000000e+000 -4.5661272e-006  1.7885303e-006  0.0000000e+000  1.8169698e-006  2.0031575e-002 
 2.0000000e+001  1.6856700e-001  1.0000000e+000 -2.4358181e-002  8.7997187e-003  0.0000000e+000  9.0046981e-003  1.7514301e-002 
 2.0000000e+001  2.1679640e-001  1.0000000e+000 -7.0057217e-006 -4.2269512e-006  0.0000000e+000 -4.1507666e-006  1.4744828e-002 
 2.0000000e+001  2.6984873e-001  1.0000000e+000 -2.2305790e-002  1.2059692e-002  0.0000000e+000  1.2359527e-002  1.1736047e-002 
 2.0000000e+001  3.2820630e-001  1.0000000e+000 -8.6321570e-006 -7.7817213e-006  0.0000000e+000 -7.6390363e-006  8.5292524e-003 
 2.0000000e+001  3.9239961e-001  1.0000000e+000 -2.0031573e-002  1.5083686e-002  0.0000000e+000  1.5473728e-002  5.1779100e-003 
 2.0000000e+001  4.6301234e-001  1.0000000e+000 -8.9925043e-006 -9.0090271e-006  0.0000000e+000 -8.7984876e-006  1.6912061e-003 
 2.0000000e+001  5.3838348e-001  1.0000000e+000 -1.7514300e-002  1.7835079e-002  0.0000000e+000  1.8299920e-002  1.7521876e-003 
 2.0000000e+001  6.1131215e-001  1.0000000e+000 -7.5258376e-006 -8.4765270e-006  0.0000000e+000 -8.2426457e-006  5.3594252e-003 
 2.0000000e+001  6.7694795e-001  1.0000000e+000 -1.4744825e-002  2.0308573e-002  0.0000000e+000  2.0795738e-002  8.7997196e-003 
 2.0000000e+001  7.3602021e-001  1.0000000e+000 -3.7508264e-006 -6.7817291e-006  0.0000000e+000 -6.6392006e-006  1.2059693e-002 
 2.0000000e+001  7.8918511e-001  1.0000000e+000 -1.1736047e-002  2.2520445e-002  0.0000000e+000  2.2965669e-002  1.5083688e-002 
 2.0000000e+001  8.3703363e-001  1.0000000e+000  2.3135192e-006 -4.3681744e-006  0.0000000e+000 -4.4610938e-006  1.7835082e-002 
 2.0000000e+001  8.8009727e-001  1.0000000e+000 -8.5292514e-003  2.4497081e-002  0.0000000e+000  2.4848362e-002  2.0308575e-002 
 2.0000000e+001  9.1885448e-001  1.0000000e+000  9.4826901e-006 -1.5415917e-006  0.0000000e+000 -1.9751689e-006  2.2520445e-002 
 2.0000000e+001  9.5373595e-001  1.0000000e+000 -5.1779011e-003  2.6817130e-002  0.0000000e+000  2.7033328e-002  2.4497081e-002 
 2.0000000e+001  9.8512936e-001  1.0000000e+000  1.4946770e-005  2.6964232e-002  0.0000000e+000  2.6930846e-002  2.6817130e-002 
 2.0000000e+001  1.0000000e+000  1.0000000e+000 -1.6911401e-003 -9.7397469e-007  0.0000000e+000  8.3478748e-005  2.6964232e-002 
Zone i=62, j=1, k=2
 0.0000000e+000  0.0000000e+000  0.0000000e+000  5.1147394e-043 -4.5974182e+001  0.0000000e+000  0.0000000e+000  3.8198042e-001 
 1.2291715e-002  0.0000000e+000  0.0000000e+000  5.7789549e-042  0.0000000e+000  0.0000000e+000  0.0000000e+000  3.6985135e-001 
 3.7736509e-002  0.0000000e+000  0.0000000e+000  5.1147394e-043  3.0124536e+032  0.0000000e+000  3.0124536e+032  3.4474322e-001 
 6.4963534e-002  0.0000000e+000  0.0000000e+000  0.0000000e+000  0.0000000e+000  0.0000000e+000  0.0000000e+000  3.0036587e-001 
 9.4095588e-002  0.0000000e+000  0.0000000e+000  0.0000000e+000 -2.2493061e+032  0.0000000e+000 -2.2493061e+032  2.5126418e-001 
 1.2526625e-001  0.0000000e+000  0.0000000e+000  3.0141946e+032  4.5909340e-041  0.0000000e+000  4.5909340e-041  2.0550828e-001 
 1.5861896e-001  0.0000000e+000  0.0000000e+000  0.0000000e+000  0.0000000e+000  0.0000000e+000  0.0000000e+000  1.6628112e-001 
 1.9430619e-001  0.0000000e+000  0.0000000e+000 -1.3758606e+035  1.6480671e-041  0.0000000e+000  1.6480671e-041  1.3511160e-001 
 2.3249130e-001  0.0000000e+000  0.0000000e+000  0.0000000e+000  0.0000000e+000  0.0000000e+000  0.0000000e+000  1.1212377e-001 
 2.7334976e-001  0.0000000e+000  0.0000000e+000 -2.9967276e+035  5.1147394e-043  0.0000000e+000  5.1147394e-043  9.6198849e-002 
 3.1706923e-001  0.0000000e+000  0.0000000e+000  9.2485699e-044  2.9908825e+032  0.0000000e+000  2.9908825e+032  8.5652277e-002 
 3.6384889e-001  0.0000000e+000  0.0000000e+000 -2.9967276e+035  5.1147394e-043  0.0000000e+000  5.1147394e-043  7.8804374e-002 
 4.1390228e-001  0.0000000e+000  0.0000000e+000  5.1147394e-043  0.0000000e+000  0.0000000e+000  0.0000000e+000  7.4228682e-002 
 4.6745992e-001  0.0000000e+000  0.0000000e+000 -1.#QNAN00e+000  0.0000000e+000  0.0000000e+000 -1.#QNAN00e+000  7.0854209e-002 
 5.2476656e-001  0.0000000e+000  0.0000000e+000  5.1147394e-043 -4.5974243e+001  0.0000000e+000 -4.5974243e+001  6.8007141e-002 
 5.8608472e-001  0.0000000e+000  0.0000000e+000 -1.#QNAN00e+000 -1.#QNAN00e+000  0.0000000e+000 -1.#QNAN00e+000  6.5364838e-002 
 6.5169525e-001  0.0000000e+000  0.0000000e+000  4.5909340e-041 -2.6542670e+035  0.0000000e+000 -2.6542670e+035  6.2837288e-002 
 7.2189790e-001  0.0000000e+000  0.0000000e+000 -2.9967228e+035  5.1147394e-043  0.0000000e+000  5.1147394e-043  6.0439847e-002 
 7.9701531e-001  0.0000000e+000  0.0000000e+000  0.0000000e+000  0.0000000e+000  0.0000000e+000  0.0000000e+000  5.8206268e-002 
 8.7739104e-001  0.0000000e+000  0.0000000e+000  0.0000000e+000  2.2958874e-041  0.0000000e+000  2.2958874e-041  5.6152280e-002 
 9.6339333e-001  0.0000000e+000  0.0000000e+000  0.0000000e+000  2.9387429e-039  0.0000000e+000  2.9387429e-039  5.4271799e-002 
 1.0554160e+000  0.0000000e+000  0.0000000e+000  0.0000000e+000  2.9679501e-041  0.0000000e+000  2.9679501e-041  5.2545775e-002 
 1.1538795e+000  0.0000000e+000  0.0000000e+000  0.0000000e+000  6.5918760e+006  0.0000000e+000  6.5918760e+006  5.0951984e-002 
 1.2592361e+000  0.0000000e+000  0.0000000e+000  0.0000000e+000  1.4012985e-045  0.0000000e+000  1.4012985e-045  4.9470369e-002 
 1.3719671e+000  0.0000000e+000  0.0000000e+000  0.0000000e+000  2.9387429e-039  0.0000000e+000  2.9387429e-039  4.8085190e-002 
 1.4925885e+000  0.0000000e+000  0.0000000e+000  0.0000000e+000  2.9679501e-041  0.0000000e+000  2.9679501e-041  4.6784516e-002 
 1.6216545e+000  0.0000000e+000  0.0000000e+000  0.0000000e+000  6.5918760e+006  0.0000000e+000  6.5918760e+006  4.5559566e-002 
 1.7597550e+000  0.0000000e+000  0.0000000e+000  0.0000000e+000  5.6051939e-045  0.0000000e+000  5.6051939e-045  4.4403601e-002 
 1.9075224e+000  0.0000000e+000  0.0000000e+000  0.0000000e+000  4.4841551e-044  0.0000000e+000  4.4841551e-044  4.3311082e-002 
 2.0656340e+000  0.0000000e+000  0.0000000e+000  0.0000000e+000  0.0000000e+000  0.0000000e+000  0.0000000e+000  4.2277314e-002 
 2.2348135e+000  0.0000000e+000  0.0000000e+000  0.0000000e+000  5.6051939e-045  0.0000000e+000  5.6051939e-045  4.1298114e-002 
 2.4158354e+000  0.0000000e+000  0.0000000e+000  0.0000000e+000  2.4775657e-040  0.0000000e+000  2.4775657e-040  4.0369771e-002 
 2.6095285e+000  0.0000000e+000  0.0000000e+000  0.0000000e+000  0.0000000e+000  0.0000000e+000  0.0000000e+000  3.9488994e-002 
 2.8167806e+000  0.0000000e+000  0.0000000e+000  0.0000000e+000  0.0000000e+000  0.0000000e+000  0.0000000e+000  3.8652815e-002 
 3.0385399e+000  0.0000000e+000  0.0000000e+000  0.0000000e+000  8.6488141e-042  0.0000000e+000  8.6488141e-042  3.7858568e-002 
 3.2758224e+000  0.0000000e+000  0.0000000e+000  0.0000000e+000  0.0000000e+000  0.0000000e+000  0.0000000e+000  3.7103806e-002 
 3.5297146e+000  0.0000000e+000  0.0000000e+000  0.0000000e+000  2.9387429e-039  0.0000000e+000  2.9387429e-039  3.6386356e-002 
 3.8013785e+000  0.0000000e+000  0.0000000e+000  0.0000000e+000  0.0000000e+000  0.0000000e+000  0.0000000e+000  3.5704195e-002 
 4.0920601e+000  0.0000000e+000  0.0000000e+000  0.0000000e+000  0.0000000e+000  0.0000000e+000  0.0000000e+000  3.5055507e-002 
 4.4030900e+000  0.0000000e+000  0.0000000e+000  0.0000000e+000  1.4012985e-045  0.0000000e+000  1.4012985e-045  3.4438539e-002 
 4.7358913e+000  0.0000000e+000  0.0000000e+000  0.0000000e+000  2.9387429e-039  0.0000000e+000  2.9387429e-039  3.3851825e-002 
 5.0919890e+000  0.0000000e+000  0.0000000e+000  0.0000000e+000  2.8025969e-045  0.0000000e+000  2.8025969e-045  3.3293936e-002 
 5.4730139e+000  0.0000000e+000  0.0000000e+000  0.0000000e+000  5.6051939e-045  0.0000000e+000  5.6051939e-045  3.2763589e-002 
 5.8807087e+000  0.0000000e+000  0.0000000e+000  0.0000000e+000  2.2958874e-041  0.0000000e+000  2.2958874e-041  3.2259591e-002 
 6.3169422e+000  0.0000000e+000  0.0000000e+000  0.0000000e+000 -4.5974182e+001  0.0000000e+000 -4.5974182e+001  3.1780917e-002 
 6.7837143e+000  0.0000000e+000  0.0000000e+000  0.0000000e+000  0.0000000e+000  0.0000000e+000  0.0000000e+000  3.1326611e-002 
 7.2831593e+000  0.0000000e+000  0.0000000e+000  0.0000000e+000  3.0124536e+032  0.0000000e+000  3.0124536e+032  3.0895909e-002 
 7.8175659e+000  0.0000000e+000  0.0000000e+000  0.0000000e+000  0.0000000e+000  0.0000000e+000  0.0000000e+000  3.0488035e-002 
 8.3893795e+000  0.0000000e+000  0.0000000e+000  0.0000000e+000 -2.2493061e+032  0.0000000e+000 -2.2493061e+032  3.0102473e-002 
 9.0012217e+000  0.0000000e+000  0.0000000e+000  0.0000000e+000  4.5909340e-041  0.0000000e+000  4.5909340e-041  2.9738652e-002 
 9.6558924e+000  0.0000000e+000  0.0000000e+000  0.0000000e+000  0.0000000e+000  0.0000000e+000  0.0000000e+000  2.9396489e-002 
 1.0356388e+001  0.0000000e+000  0.0000000e+000  0.0000000e+000  1.6480671e-041  0.0000000e+000  1.6480671e-041  2.9075284e-002 
 1.1105920e+001  0.0000000e+000  0.0000000e+000  0.0000000e+000  0.0000000e+000  0.0000000e+000  0.0000000e+000  2.8775671e-002 
 1.1907920e+001  0.0000000e+000  0.0000000e+000  0.0000000e+000  5.1147394e-043  0.0000000e+000  5.1147394e-043  2.8496232e-002 
 1.2766060e+001  0.0000000e+000  0.0000000e+000  0.0000000e+000  2.9908825e+032  0.0000000e+000  2.9908825e+032  2.8239302e-002 
 1.3684270e+001  0.0000000e+000  0.0000000e+000  0.0000000e+000  5.1147394e-043  0.0000000e+000  5.1147394e-043  2.8000906e-002 
 1.4666756e+001  0.0000000e+000  0.0000000e+000  0.0000000e+000  0.0000000e+000  0.0000000e+000  0.0000000e+000  2.7786920e-002 
 1.5718015e+001  0.0000000e+000  0.0000000e+000  0.0000000e+000  0.0000000e+000  0.0000000e+000  0.0000000e+000  2.7590048e-002 
 1.6842865e+001  0.0000000e+000  0.0000000e+000  0.0000000e+000 -4.5974243e+001  0.0000000e+000 -4.5974243e+001  2.7412551e-002 
 1.8046452e+001  0.0000000e+000  0.0000000e+000  0.0000000e+000 -1.#QNAN00e+000  0.0000000e+000 -1.#QNAN00e+000  2.7278163e-002 
 1.9334295e+001  0.0000000e+000  0.0000000e+000  0.0000000e+000 -2.6543938e+035  0.0000000e+000 -2.6543938e+035  2.7073631e-002 
 2.0000000e+001  0.0000000e+000  0.0000000e+000  0.0000000e+000  5.1147394e-043  0.0000000e+000  5.1147394e-043  2.6967905e-002 
 0.0000000e+000  0.0000000e+000  1.0000000e+000  3.7826011e-001  4.0369738e-002  0.0000000e+000  0.0000000e+000  3.8198042e-001 
 1.2291715e-002  0.0000000e+000  1.0000000e+000  5.8415227e-002 -5.0585724e-005  0.0000000e+000 -5.0585724e-005  3.6985135e-001 
 3.7736509e-002  0.0000000e+000  1.0000000e+000  3.6333516e-001  3.9488971e-002  0.0000000e+000  3.9488971e-002  3.4474322e-001 
 6.4963534e-002  0.0000000e+000  1.0000000e+000  6.9119982e-002 -4.3759592e-005  0.0000000e+000 -4.3759592e-005  3.0036587e-001 
 9.4095588e-002  0.0000000e+000  1.0000000e+000  3.3243936e-001  3.8652796e-002  0.0000000e+000  3.8652796e-002  2.5126418e-001 
 1.2526625e-001  0.0000000e+000  1.0000000e+000  9.1279648e-002 -3.7884114e-005  0.0000000e+000 -3.7884114e-005  2.0550828e-001 
 1.5861896e-001  0.0000000e+000  1.0000000e+000  2.8953373e-001  3.7858553e-002  0.0000000e+000  3.7858553e-002  1.6628112e-001 
 1.9430619e-001  0.0000000e+000  1.0000000e+000  7.9936706e-002 -3.2990829e-005  0.0000000e+000 -3.2990829e-005  1.3511160e-001 
 2.3249130e-001  0.0000000e+000  1.0000000e+000  2.4381156e-001  3.7103795e-002  0.0000000e+000  3.7103795e-002  1.1212377e-001 
 2.7334976e-001  0.0000000e+000  1.0000000e+000  6.0742151e-002 -2.8743470e-005  0.0000000e+000 -2.8743470e-005  9.6198849e-002 
 3.1706923e-001  0.0000000e+000  1.0000000e+000  2.0146653e-001  3.6386348e-002  0.0000000e+000  3.6386348e-002  8.5652277e-002 
 3.6384889e-001  0.0000000e+000  1.0000000e+000  4.0557228e-002 -2.5080111e-005  0.0000000e+000 -2.5080111e-005  7.8804374e-002 
 4.1390228e-001  0.0000000e+000  1.0000000e+000  1.6470808e-001  3.5704188e-002  0.0000000e+000  3.5704188e-002  7.4228682e-002 
 4.6745992e-001  0.0000000e+000  1.0000000e+000  2.2817980e-002 -2.1912045e-005  0.0000000e+000 -2.1912045e-005  7.0854209e-002 
 5.2476656e-001  0.0000000e+000  1.0000000e+000  1.3477492e-001  3.5055503e-002  0.0000000e+000  3.5055503e-002  6.8007141e-002 
 5.8608472e-001  0.0000000e+000  1.0000000e+000  9.5322207e-003 -1.9131148e-005  0.0000000e+000 -1.9131148e-005  6.5364838e-002 
 6.5169525e-001  0.0000000e+000  1.0000000e+000  1.1211927e-001  3.4438536e-002  0.0000000e+000  3.4438536e-002  6.2837288e-002 
 7.2189790e-001  0.0000000e+000  1.0000000e+000  1.0044629e-003 -1.6839447e-005  0.0000000e+000 -1.6839447e-005  6.0439847e-002 
 7.9701531e-001  0.0000000e+000  1.0000000e+000  9.6136577e-002  3.3851821e-002  0.0000000e+000  3.3851821e-002  5.8206268e-002 
 8.7739104e-001  0.0000000e+000  1.0000000e+000 -3.4605667e-003 -1.4642626e-005  0.0000000e+000 -1.4642626e-005  5.6152280e-002 
 9.6339333e-001  0.0000000e+000  1.0000000e+000  8.5506566e-002  3.3293933e-002  0.0000000e+000  3.3293933e-002  5.4271799e-002 
 1.0554160e+000  0.0000000e+000  1.0000000e+000 -4.9939603e-003 -1.2880657e-005  0.0000000e+000 -1.2880657e-005  5.2545775e-002 
 1.1538795e+000  0.0000000e+000  1.0000000e+000  7.8658074e-002  3.2763589e-002  0.0000000e+000  3.2763589e-002  5.0951984e-002 
 1.2592361e+000  0.0000000e+000  1.0000000e+000 -4.7997693e-003 -1.1274340e-005  0.0000000e+000 -1.1274340e-005  4.9470369e-002 
 1.3719671e+000  0.0000000e+000  1.0000000e+000  7.4127994e-002  3.2259591e-002  0.0000000e+000  3.2259591e-002  4.8085190e-002 
 1.4925885e+000  0.0000000e+000  1.0000000e+000 -3.8649633e-003 -9.8828996e-006  0.0000000e+000 -9.8828996e-006  4.6784516e-002 
 1.6216545e+000  0.0000000e+000  1.0000000e+000  7.0798017e-002  3.1780913e-002  0.0000000e+000  3.1780913e-002  4.5559566e-002 
 1.7597550e+000  0.0000000e+000  1.0000000e+000 -2.8212587e-003 -8.6234722e-006  0.0000000e+000 -8.6234722e-006  4.4403601e-002 
 1.9075224e+000  0.0000000e+000  1.0000000e+000  6.7978762e-002  3.1326607e-002  0.0000000e+000  3.1326607e-002  4.3311082e-002 
 2.0656340e+000  0.0000000e+000  1.0000000e+000 -1.9645526e-003 -7.6674651e-006  0.0000000e+000 -7.6674651e-006  4.2277314e-002 
 2.2348135e+000  0.0000000e+000  1.0000000e+000  6.5350644e-002  3.0895907e-002  0.0000000e+000  3.0895907e-002  4.1298114e-002 
 2.4158354e+000  0.0000000e+000  1.0000000e+000 -1.3621304e-003 -6.6583189e-006  0.0000000e+000 -6.6583189e-006  4.0369771e-002 
 2.6095285e+000  0.0000000e+000  1.0000000e+000  6.2829785e-002  3.0488033e-002  0.0000000e+000  3.0488033e-002  3.9488994e-002 
 2.8167806e+000  0.0000000e+000  1.0000000e+000 -9.7096665e-004 -5.8323981e-006  0.0000000e+000 -5.8323981e-006  3.8652815e-002 
 3.0385399e+000  0.0000000e+000  1.0000000e+000  6.0435548e-002  3.0102473e-002  0.0000000e+000  3.0102473e-002  3.7858568e-002 
 3.2758224e+000  0.0000000e+000  1.0000000e+000 -7.2090421e-004 -5.1179018e-006  0.0000000e+000 -5.1179018e-006  3.7103806e-002 
 3.5297146e+000  0.0000000e+000  1.0000000e+000  5.8203623e-002  2.9738652e-002  0.0000000e+000  2.9738652e-002  3.6386356e-002 
 3.8013785e+000  0.0000000e+000  1.0000000e+000 -5.5498513e-004 -4.3905980e-006  0.0000000e+000 -4.3905980e-006  3.5704195e-002 
 4.0920601e+000  0.0000000e+000  1.0000000e+000  5.6150574e-002  2.9396489e-002  0.0000000e+000  2.9396489e-002  3.5055507e-002 
 4.4030900e+000  0.0000000e+000  1.0000000e+000 -4.3783526e-004 -3.8526209e-006  0.0000000e+000 -3.8526209e-006  3.4438539e-002 
 4.7358913e+000  0.0000000e+000  1.0000000e+000  5.4270670e-002  2.9075284e-002  0.0000000e+000  2.9075284e-002  3.3851825e-002 
 5.0919890e+000  0.0000000e+000  1.0000000e+000 -3.5048960e-004 -3.4106511e-006  0.0000000e+000 -3.4106511e-006  3.3293936e-002 
 5.4730139e+000  0.0000000e+000  1.0000000e+000  5.2545007e-002  2.8775671e-002  0.0000000e+000  2.8775671e-002  3.2763589e-002 
 5.8807087e+000  0.0000000e+000  1.0000000e+000 -2.8321837e-004 -2.9532337e-006  0.0000000e+000 -2.9532337e-006  3.2259591e-002 
 6.3169422e+000  0.0000000e+000  1.0000000e+000  5.0951462e-002  2.8496230e-002  0.0000000e+000  2.8496230e-002  3.1780917e-002 
 6.7837143e+000  0.0000000e+000  1.0000000e+000 -2.3073732e-004 -2.4716655e-006  0.0000000e+000 -2.4716655e-006  3.1326611e-002 
 7.2831593e+000  0.0000000e+000  1.0000000e+000  4.9470007e-002  2.8239302e-002  0.0000000e+000  2.8239302e-002  3.0895909e-002 
 7.8175659e+000  0.0000000e+000  1.0000000e+000 -1.8968676e-004 -2.1741753e-006  0.0000000e+000 -2.1741753e-006  3.0488035e-002 
 8.3893795e+000  0.0000000e+000  1.0000000e+000  4.8084930e-002  2.8000908e-002  0.0000000e+000  2.8000908e-002  3.0102473e-002 
 9.0012217e+000  0.0000000e+000  1.0000000e+000 -1.5718152e-004 -1.7441822e-006  0.0000000e+000 -1.7441822e-006  2.9738652e-002 
 9.6558924e+000  0.0000000e+000  1.0000000e+000  4.6784334e-002  2.7786920e-002  0.0000000e+000  2.7786920e-002  2.9396489e-002 
 1.0356388e+001  0.0000000e+000  1.0000000e+000 -1.3126856e-004 -1.5533440e-006  0.0000000e+000 -1.5533440e-006  2.9075284e-002 
 1.1105920e+001  0.0000000e+000  1.0000000e+000  4.5559432e-002  2.7590048e-002  0.0000000e+000  2.7590048e-002  2.8775671e-002 
 1.1907920e+001  0.0000000e+000  1.0000000e+000 -1.1042962e-004 -1.2172081e-006  0.0000000e+000 -1.2172081e-006  2.8496232e-002 
 1.2766060e+001  0.0000000e+000  1.0000000e+000  4.4403505e-002  2.7412551e-002  0.0000000e+000  2.7412551e-002  2.8239302e-002 
 1.3684270e+001  0.0000000e+000  1.0000000e+000 -9.3546492e-005 -1.0404709e-006  0.0000000e+000 -1.0404709e-006  2.8000906e-002 
 1.4666756e+001  0.0000000e+000  1.0000000e+000  4.3311011e-002  2.7278161e-002  0.0000000e+000  2.7278161e-002  2.7786920e-002 
 1.5718015e+001  0.0000000e+000  1.0000000e+000 -7.9659192e-005 -1.0988557e-006  0.0000000e+000 -1.0988557e-006  2.7590048e-002 
 1.6842865e+001  0.0000000e+000  1.0000000e+000  4.2277262e-002  2.7073629e-002  0.0000000e+000  2.7073629e-002  2.7412551e-002 
 1.8046452e+001  0.0000000e+000  1.0000000e+000 -6.8088179e-005 -7.8506980e-007  0.0000000e+000 -7.8506980e-007  2.7278163e-002 
 1.9334295e+001  0.0000000e+000  1.0000000e+000  4.1298073e-002  2.6967904e-002  0.0000000e+000  2.6967904e-002  2.7073631e-002 
 2.0000000e+001  0.0000000e+000  1.0000000e+000 -5.8548165e-005 -6.2286955e-007  0.0000000e+000 -6.2286955e-007  2.6967905e-002 
Zone i=62, j=1, k=2
 0.0000000e+000  1.0000000e+000  0.0000000e+000  0.0000000e+000  0.0000000e+000  0.0000000e+000  0.0000000e+000  4.0357229e-001 
 1.2291715e-002  1.0000000e+000  0.0000000e+000  0.0000000e+000  0.0000000e+000  0.0000000e+000  0.0000000e+000  3.8892129e-001 
 3.7736509e-002  1.0000000e+000  0.0000000e+000  0.0000000e+000  0.0000000e+000  0.0000000e+000  0.0000000e+000  3.5859257e-001 
 6.4963534e-002  1.0000000e+000  0.0000000e+000  0.0000000e+000  0.0000000e+000  0.0000000e+000  0.0000000e+000  3.0684632e-001 
 9.4095588e-002  1.0000000e+000  0.0000000e+000  0.0000000e+000  0.0000000e+000  0.0000000e+000  0.0000000e+000  2.5162077e-001 
 1.2526625e-001  1.0000000e+000  0.0000000e+000  0.0000000e+000  0.0000000e+000  0.0000000e+000  0.0000000e+000  2.0214218e-001 
 1.5861896e-001  1.0000000e+000  0.0000000e+000  0.0000000e+000  0.0000000e+000  0.0000000e+000  0.0000000e+000  1.6152887e-001 
 1.9430619e-001  1.0000000e+000  0.0000000e+000  0.0000000e+000  0.0000000e+000  0.0000000e+000  0.0000000e+000  1.3073695e-001 
 2.3249130e-001  1.0000000e+000  0.0000000e+000  0.0000000e+000  0.0000000e+000  0.0000000e+000  0.0000000e+000  1.0907599e-001 
 2.7334976e-001  1.0000000e+000  0.0000000e+000  0.0000000e+000  0.0000000e+000  0.0000000e+000  0.0000000e+000  9.4688423e-002 
 3.1706923e-001  1.0000000e+000  0.0000000e+000  0.0000000e+000  0.0000000e+000  0.0000000e+000  0.0000000e+000  8.5432872e-002 
 3.6384889e-001  1.0000000e+000  0.0000000e+000  0.0000000e+000  0.0000000e+000  0.0000000e+000  0.0000000e+000  7.9428673e-002 
 4.1390228e-001  1.0000000e+000  0.0000000e+000  0.0000000e+000  0.0000000e+000  0.0000000e+000  0.0000000e+000  7.5225681e-002 
 4.6745992e-001  1.0000000e+000  0.0000000e+000  0.0000000e+000  0.0000000e+000  0.0000000e+000  0.0000000e+000  7.1860641e-002 
 5.2476656e-001  1.0000000e+000  0.0000000e+000  0.0000000e+000  0.0000000e+000  0.0000000e+000  0.0000000e+000  6.8830438e-002 
 5.8608472e-001  1.0000000e+000  0.0000000e+000  0.0000000e+000  0.0000000e+000  0.0000000e+000  0.0000000e+000  6.5962955e-002 
 6.5169525e-001  1.0000000e+000  0.0000000e+000  0.0000000e+000  0.0000000e+000  0.0000000e+000  0.0000000e+000  6.3252687e-002 
 7.2189790e-001  1.0000000e+000  0.0000000e+000  0.0000000e+000  0.0000000e+000  0.0000000e+000  0.0000000e+000  6.0736466e-002 
 7.9701531e-001  1.0000000e+000  0.0000000e+000  0.0000000e+000  0.0000000e+000  0.0000000e+000  0.0000000e+000  5.8435224e-002 