Variables = "x","y", "Velocity_x", "Velocity_y", "Velocity_whole value", "Pressure", "Absolute pressure", "Total pressure"
Zone i=62, j=22
 0.0000000e+000  0.0000000e+000  0.0000000e+000  0.0000000e+000  0.0000000e+000  1.9655230e+000  1.9655230e+000  1.9655230e+000 
 1.2291715e-002  0.0000000e+000  0.0000000e+000  0.0000000e+000  0.0000000e+000  1.8480804e+000  1.8480804e+000  1.8480804e+000 
 3.7736509e-002  0.0000000e+000  0.0000000e+000  0.0000000e+000  0.0000000e+000  1.6049651e+000  1.6049651e+000  1.6049651e+000 
 6.4963534e-002  0.0000000e+000  0.0000000e+000  0.0000000e+000  0.0000000e+000  1.4557761e+000  1.4557761e+000  1.4557761e+000 
 9.4095588e-002  0.0000000e+000  0.0000000e+000  0.0000000e+000  0.0000000e+000  1.3550872e+000  1.3550872e+000  1.3550872e+000 
 1.2526625e-001  0.0000000e+000  0.0000000e+000  0.0000000e+000  0.0000000e+000  1.2804872e+000  1.2804872e+000  1.2804872e+000 
 1.5861896e-001  0.0000000e+000  0.0000000e+000  0.0000000e+000  0.0000000e+000  1.2315779e+000  1.2315779e+000  1.2315779e+000 
 1.9430619e-001  0.0000000e+000  0.0000000e+000  0.0000000e+000  0.0000000e+000  1.2038748e+000  1.2038748e+000  1.2038748e+000 
 2.3249130e-001  0.0000000e+000  0.0000000e+000  0.0000000e+000  0.0000000e+000  1.1895857e+000  1.1895857e+000  1.1895857e+000 
 2.7334976e-001  0.0000000e+000  0.0000000e+000  0.0000000e+000  0.0000000e+000  1.1818355e+000  1.1818355e+000  1.1818355e+000 
 3.1706923e-001  0.0000000e+000  0.0000000e+000  0.0000000e+000  0.0000000e+000  1.1760805e+000  1.1760805e+000  1.1760805e+000 
 3.6384889e-001  0.0000000e+000  0.0000000e+000  0.0000000e+000  0.0000000e+000  1.1701100e+000  1.1701100e+000  1.1701100e+000 
 4.1390228e-001  0.0000000e+000  0.0000000e+000  0.0000000e+000  0.0000000e+000  1.1633224e+000  1.1633224e+000  1.1633224e+000 
 4.6745992e-001  0.0000000e+000  0.0000000e+000  0.0000000e+000  0.0000000e+000  1.1558332e+000  1.1558332e+000  1.1558332e+000 
 5.2476656e-001  0.0000000e+000  0.0000000e+000  0.0000000e+000  0.0000000e+000  1.1478840e+000  1.1478840e+000  1.1478840e+000 
 5.8608472e-001  0.0000000e+000  0.0000000e+000  0.0000000e+000  0.0000000e+000  1.1396154e+000  1.1396154e+000  1.1396154e+000 
 6.5169525e-001  0.0000000e+000  0.0000000e+000  0.0000000e+000  0.0000000e+000  1.1310573e+000  1.1310573e+000  1.1310573e+000 
 7.2189790e-001  0.0000000e+000  0.0000000e+000  0.0000000e+000  0.0000000e+000  1.1221824e+000  1.1221824e+000  1.1221824e+000 
 7.9701531e-001  0.0000000e+000  0.0000000e+000  0.0000000e+000  0.0000000e+000  1.1129525e+000  1.1129525e+000  1.1129525e+000 
 8.7739104e-001  0.0000000e+000  0.0000000e+000  0.0000000e+000  0.0000000e+000  1.1033359e+000  1.1033359e+000  1.1033359e+000 
 9.6339333e-001  0.0000000e+000  0.0000000e+000  0.0000000e+000  0.0000000e+000  1.0933108e+000  1.0933108e+000  1.0933108e+000 
 1.0554160e+000  0.0000000e+000  0.0000000e+000  0.0000000e+000  0.0000000e+000  1.0828633e+000  1.0828633e+000  1.0828633e+000 
 1.1538795e+000  0.0000000e+000  0.0000000e+000  0.0000000e+000  0.0000000e+000  1.0719830e+000  1.0719830e+000  1.0719830e+000 
 1.2592361e+000  0.0000000e+000  0.0000000e+000  0.0000000e+000  0.0000000e+000  1.0606606e+000  1.0606606e+000  1.0606606e+000 
 1.3719671e+000  0.0000000e+000  0.0000000e+000  0.0000000e+000  0.0000000e+000  1.0488883e+000  1.0488883e+000  1.0488883e+000 
 1.4925885e+000  0.0000000e+000  0.0000000e+000  0.0000000e+000  0.0000000e+000  1.0366573e+000  1.0366573e+000  1.0366573e+000 
 1.6216545e+000  0.0000000e+000  0.0000000e+000  0.0000000e+000  0.0000000e+000  1.0239576e+000  1.0239576e+000  1.0239576e+000 
 1.7597550e+000  0.0000000e+000  0.0000000e+000  0.0000000e+000  0.0000000e+000  1.0107770e+000  1.0107770e+000  1.0107770e+000 
 1.9075224e+000  0.0000000e+000  0.0000000e+000  0.0000000e+000  0.0000000e+000  9.9710071e-001  9.9710071e-001  9.9710071e-001 
 2.0656340e+000  0.0000000e+000  0.0000000e+000  0.0000000e+000  0.0000000e+000  9.8291188e-001  9.8291188e-001  9.8291188e-001 
 2.2348135e+000  0.0000000e+000  0.0000000e+000  0.0000000e+000  0.0000000e+000  9.6819091e-001  9.6819091e-001  9.6819091e-001 
 2.4158354e+000  0.0000000e+000  0.0000000e+000  0.0000000e+000  0.0000000e+000  9.5291555e-001  9.5291555e-001  9.5291555e-001 
 2.6095285e+000  0.0000000e+000  0.0000000e+000  0.0000000e+000  0.0000000e+000  9.3706089e-001  9.3706089e-001  9.3706089e-001 
 2.8167806e+000  0.0000000e+000  0.0000000e+000  0.0000000e+000  0.0000000e+000  9.2060000e-001  9.2060000e-001  9.2060000e-001 
 3.0385399e+000  0.0000000e+000  0.0000000e+000  0.0000000e+000  0.0000000e+000  9.0350354e-001  9.0350354e-001  9.0350354e-001 
 3.2758224e+000  0.0000000e+000  0.0000000e+000  0.0000000e+000  0.0000000e+000  8.8574022e-001  8.8574022e-001  8.8574022e-001 
 3.5297146e+000  0.0000000e+000  0.0000000e+000  0.0000000e+000  0.0000000e+000  8.6727577e-001  8.6727577e-001  8.6727577e-001 
 3.8013785e+000  0.0000000e+000  0.0000000e+000  0.0000000e+000  0.0000000e+000  8.4807396e-001  8.4807396e-001  8.4807396e-001 
 4.0920601e+000  0.0000000e+000  0.0000000e+000  0.0000000e+000  0.0000000e+000  8.2809532e-001  8.2809532e-001  8.2809532e-001 
 4.4030900e+000  0.0000000e+000  0.0000000e+000  0.0000000e+000  0.0000000e+000  8.0729771e-001  8.0729771e-001  8.0729771e-001 
 4.7358913e+000  0.0000000e+000  0.0000000e+000  0.0000000e+000  0.0000000e+000  7.8563529e-001  7.8563529e-001  7.8563529e-001 
 5.0919890e+000  0.0000000e+000  0.0000000e+000  0.0000000e+000  0.0000000e+000  7.6305807e-001  7.6305807e-001  7.6305807e-001 
 5.4730139e+000  0.0000000e+000  0.0000000e+000  0.0000000e+000  0.0000000e+000  7.3951149e-001  7.3951149e-001  7.3951149e-001 
 5.8807087e+000  0.0000000e+000  0.0000000e+000  0.0000000e+000  0.0000000e+000  7.1493536e-001  7.1493536e-001  7.1493536e-001 
 6.3169422e+000  0.0000000e+000  0.0000000e+000  0.0000000e+000  0.0000000e+000  6.8926269e-001  6.8926269e-001  6.8926269e-001 
 6.7837143e+000  0.0000000e+000  0.0000000e+000  0.0000000e+000  0.0000000e+000  6.6241932e-001  6.6241932e-001  6.6241932e-001 
 7.2831593e+000  0.0000000e+000  0.0000000e+000  0.0000000e+000  0.0000000e+000  6.3432169e-001  6.3432169e-001  6.3432169e-001 
 7.8175659e+000  0.0000000e+000  0.0000000e+000  0.0000000e+000  0.0000000e+000  6.0487688e-001  6.0487688e-001  6.0487688e-001 
 8.3893795e+000  0.0000000e+000  0.0000000e+000  0.0000000e+000  0.0000000e+000  5.7397991e-001  5.7397991e-001  5.7397991e-001 
 9.0012217e+000  0.0000000e+000  0.0000000e+000  0.0000000e+000  0.0000000e+000  5.4151285e-001  5.4151285e-001  5.4151285e-001 
 9.6558924e+000  0.0000000e+000  0.0000000e+000  0.0000000e+000  0.0000000e+000  5.0734472e-001  5.0734472e-001  5.0734472e-001 
 1.0356388e+001  0.0000000e+000  0.0000000e+000  0.0000000e+000  0.0000000e+000  4.7132874e-001  4.7132874e-001  4.7132874e-001 
 1.1105920e+001  0.0000000e+000  0.0000000e+000  0.0000000e+000  0.0000000e+000  4.3330345e-001  4.3330345e-001  4.3330345e-001 
 1.1907920e+001  0.0000000e+000  0.0000000e+000  0.0000000e+000  0.0000000e+000  3.9308900e-001  3.9308900e-001  3.9308900e-001 
 1.2766060e+001  0.0000000e+000  0.0000000e+000  0.0000000e+000  0.0000000e+000  3.5049358e-001  3.5049358e-001  3.5049358e-001 
 1.3684270e+001  0.0000000e+000  0.0000000e+000  0.0000000e+000  0.0000000e+000  3.0530044e-001  3.0530044e-001  3.0530044e-001 
 1.4666756e+001  0.0000000e+000  0.0000000e+000  0.0000000e+000  0.0000000e+000  2.5729150e-001  2.5729150e-001  2.5729150e-001 
 1.5718015e+001  0.0000000e+000  0.0000000e+000  0.0000000e+000  0.0000000e+000  2.0620616e-001  2.0620616e-001  2.0620616e-001 
 1.6842865e+001  0.0000000e+000  0.0000000e+000  0.0000000e+000  0.0000000e+000  1.5181015e-001  1.5181015e-001  1.5181015e-001 
 1.8046452e+001  0.0000000e+000  0.0000000e+000  0.0000000e+000  0.0000000e+000  9.3798690e-002  9.3798690e-002  9.3798690e-002 
 1.9334295e+001  0.0000000e+000  0.0000000e+000  0.0000000e+000  0.0000000e+000  3.1872887e-002  3.1872887e-002  3.1872887e-002 
 2.0000000e+001  0.0000000e+000  0.0000000e+000  0.0000000e+000  0.0000000e+000 -1.3741713e-004 -1.3741713e-004 -1.3741713e-004 
 0.0000000e+000  1.5686335e-002  1.0000000e+000  0.0000000e+000  1.0000000e+000  1.8262711e+000  1.8262711e+000  2.3262711e+000 
 1.2291715e-002  1.5686335e-002  9.5934385e-001  1.2723590e-001  9.6774459e-001  1.7383792e+000  1.7383792e+000  2.2066441e+000 
 3.7736509e-002  1.5686335e-002  8.5450220e-001  1.5014082e-001  8.6759222e-001  1.5564361e+000  1.5564361e+000  1.9327942e+000 
 6.4963534e-002  1.5686335e-002  7.2034651e-001  1.1589415e-001  7.2960985e-001  1.4354012e+000  1.4354012e+000  1.7015665e+000 
 9.4095588e-002  1.5686335e-002  5.9120500e-001  7.6635011e-002  5.9615123e-001  1.3486880e+000  1.3486880e+000  1.5263861e+000 
 1.2526625e-001  1.5686335e-002  4.8464674e-001  4.4168308e-002  4.8665521e-001  1.2829186e+000  1.2829186e+000  1.4013352e+000 
 1.5861896e-001  1.5686335e-002  4.0258411e-001  2.1382630e-002  4.0315157e-001  1.2383184e+000  1.2383184e+000  1.3195840e+000 
 1.9430619e-001  1.5686335e-002  3.4286985e-001  7.9095308e-003  3.4296107e-001  1.2115426e+000  1.2115426e+000  1.2703538e+000 
 2.3249130e-001  1.5686335e-002  3.0132136e-001  1.3441662e-003  3.0132437e-001  1.1963683e+000  1.1963683e+000  1.2417666e+000 
 2.7334976e-001  1.5686335e-002  2.7259988e-001 -1.0198217e-003  2.7260178e-001  1.1871047e+000  1.1871047e+000  1.2242606e+000 
 3.1706923e-001  1.5686335e-002  2.5185978e-001 -1.3173393e-003  2.5186324e-001  1.1799012e+000  1.1799012e+000  1.2116188e+000 
 3.6384889e-001  1.5686335e-002  2.3567405e-001 -9.0360030e-004  2.3567578e-001  1.1728210e+000  1.1728210e+000  1.2005926e+000 
 4.1390228e-001  1.5686335e-002  2.2208741e-001 -4.4074567e-004  2.2208785e-001  1.1652709e+000  1.1652709e+000  1.1899325e+000 
 4.6745992e-001  1.5686335e-002  2.1020645e-001 -1.3522370e-004  2.1020649e-001  1.1572754e+000  1.1572754e+000  1.1793689e+000 
 5.2476656e-001  1.5686335e-002  1.9969472e-001  1.9227000e-005  1.9969472e-001  1.1489835e+000  1.1489835e+000  1.1689224e+000 
 5.8608472e-001  1.5686335e-002  1.9040398e-001  8.3527688e-005  1.9040400e-001  1.1404727e+000  1.1404727e+000  1.1585995e+000 
 6.5169525e-001  1.5686335e-002  1.8220544e-001  1.0666457e-004  1.8220547e-001  1.1317363e+000  1.1317363e+000  1.1483357e+000 
 7.2189790e-001  1.5686335e-002  1.7495425e-001  1.1390427e-004  1.7495428e-001  1.1227272e+000  1.1227272e+000  1.1380316e+000 
 7.9701531e-001  1.5686335e-002  1.6850324e-001  1.1522600e-004  1.6850328e-001  1.1133943e+000  1.1133943e+000  1.1275909e+000 
 8.7739104e-001  1.5686335e-002  1.6272165e-001  1.1348490e-004  1.6272169e-001  1.1036981e+000  1.1036981e+000  1.1169373e+000 
 9.6339333e-001  1.5686335e-002  1.5750016e-001  1.0951010e-004  1.5750021e-001  1.0936109e+000  1.0936109e+000  1.1060140e+000 
 1.0554160e+000  1.5686335e-002  1.5275045e-001  1.0429193e-004  1.5275048e-001  1.0831141e+000  1.0831141e+000  1.0947804e+000 
 1.1538795e+000  1.5686335e-002  1.4840125e-001  9.8030927e-005  1.4840128e-001  1.0721943e+000  1.0721943e+000  1.0832058e+000 
 1.2592361e+000  1.5686335e-002  1.4439473e-001  9.1245580e-005  1.4439476e-001  1.0608402e+000  1.0608402e+000  1.0712652e+000 
 1.3719671e+000  1.5686335e-002  1.4068392e-001  8.4162195e-005  1.4068395e-001  1.0490421e+000  1.0490421e+000  1.0589381e+000 
 1.4925885e+000  1.5686335e-002  1.3723134e-001  7.7305747e-005  1.3723135e-001  1.0367897e+000  1.0367897e+000  1.0462059e+000 
 1.6216545e+000  1.5686335e-002  1.3400671e-001  7.0665104e-005  1.3400672e-001  1.0240721e+000  1.0240721e+000  1.0330509e+000 
 1.7597550e+000  1.5686335e-002  1.3098609e-001  6.4278211e-005  1.3098611e-001  1.0108763e+000  1.0108763e+000  1.0194550e+000 
 1.9075224e+000  1.5686335e-002  1.2815000e-001  5.8107184e-005  1.2815002e-001  9.9718732e-001  9.9718732e-001  1.0053985e+000 
 2.0656340e+000  1.5686335e-002  1.2548280e-001  5.2412433e-005  1.2548281e-001  9.8298758e-001  9.8298758e-001  9.9086052e-001 
 2.2348135e+000  1.5686335e-002  1.2297125e-001  4.7203121e-005  1.2297126e-001  9.6825713e-001  9.6825713e-001  9.7581810e-001 
 2.4158354e+000  1.5686335e-002  1.2060413e-001  4.2350093e-005  1.2060414e-001  9.5297354e-001  9.5297354e-001  9.6024621e-001 
 2.6095285e+000  1.5686335e-002  1.1837174e-001  3.8070793e-005  1.1837175e-001  9.3711174e-001  9.3711174e-001  9.4411767e-001 
 2.8167806e+000  1.5686335e-002  1.1626545e-001  3.4076558e-005  1.1626546e-001  9.2064458e-001  9.2064458e-001  9.2740339e-001 
 3.0385399e+000  1.5686335e-002  1.1427766e-001  3.0449093e-005  1.1427767e-001  9.0354282e-001  9.0354282e-001  9.1007251e-001 
 3.2758224e+000  1.5686335e-002  1.1240169e-001  2.7176136e-005  1.1240169e-001  8.8577461e-001  8.8577461e-001  8.9209169e-001 
 3.5297146e+000  1.5686335e-002  1.1063153e-001  2.4263318e-005  1.1063153e-001  8.6730605e-001  8.6730605e-001  8.7342572e-001 
 3.8013785e+000  1.5686335e-002  1.0896193e-001  2.1638349e-005  1.0896193e-001  8.4810054e-001  8.4810054e-001  8.5403687e-001 
 4.0920601e+000  1.5686335e-002  1.0738820e-001  1.9234205e-005  1.0738820e-001  8.2811862e-001  8.2811862e-001  8.3388472e-001 
 4.4030900e+000  1.5686335e-002  1.0590640e-001  1.7095763e-005  1.0590640e-001  8.0731809e-001  8.0731809e-001  8.1292617e-001 
 4.7358913e+000  1.5686335e-002  1.0451315e-001  1.5144703e-005  1.0451315e-001  7.8565317e-001  7.8565317e-001  7.9111469e-001 
 5.0919890e+000  1.5686335e-002  1.0320581e-001  1.3364658e-005  1.0320581e-001  7.6307374e-001  7.6307374e-001  7.6839948e-001 
 5.4730139e+000  1.5686335e-002  1.0198215e-001  1.1680725e-005  1.0198215e-001  7.3952514e-001  7.3952514e-001  7.4472535e-001 
 5.8807087e+000  1.5686335e-002  1.0084059e-001  1.0306787e-005  1.0084059e-001  7.1494722e-001  7.1494722e-001  7.2003162e-001 
 6.3169422e+000  1.5686335e-002  9.9779814e-002  8.9684909e-006  9.9779814e-002  6.8927294e-001  6.8927294e-001  6.9425094e-001 
 6.7837143e+000  1.5686335e-002  9.8799005e-002  7.7047234e-006  9.8799005e-002  6.6242814e-001  6.6242814e-001  6.6730875e-001 
 7.2831593e+000  1.5686335e-002  9.7897507e-002  6.7140013e-006  9.7897507e-002  6.3432926e-001  6.3432926e-001  6.3912123e-001 
 7.8175659e+000  1.5686335e-002  9.7074531e-002  5.7890302e-006  9.7074531e-002  6.0488325e-001  6.0488325e-001  6.0959500e-001 
 8.3893795e+000  1.5686335e-002  9.6329413e-002  4.9017135e-006  9.6329413e-002  5.7398534e-001  5.7398534e-001  5.7862502e-001 
 9.0012217e+000  1.5686335e-002  9.5660813e-002  4.0707769e-006  9.5660813e-002  5.4151738e-001  5.4151738e-001  5.4609287e-001 
 9.6558924e+000  1.5686335e-002  9.5067106e-002  3.3959323e-006  9.5067106e-002  5.0734848e-001  5.0734848e-001  5.1186734e-001 
 1.0356388e+001  1.5686335e-002  9.4545864e-002  2.7823010e-006  9.4545864e-002  4.7133178e-001  4.7133178e-001  4.7580123e-001 
 1.1105920e+001  1.5686335e-002  9.4094291e-002  2.2365632e-006  9.4094291e-002  4.3330589e-001  4.3330589e-001  4.3773276e-001 
 1.1907920e+001  1.5686335e-002  9.3708038e-002  1.8057973e-006  9.3708038e-002  3.9309090e-001  3.9309090e-001  3.9748150e-001 
 1.2766060e+001  1.5686335e-002  9.3383424e-002  1.4123324e-006  9.3383424e-002  3.5049507e-001  3.5049507e-001  3.5485530e-001 
 1.3684270e+001  1.5686335e-002  9.3113855e-002  1.0729965e-006  9.3113855e-002  3.0530161e-001  3.0530161e-001  3.0963671e-001 
 1.4666756e+001  1.5686335e-002  9.2895776e-002  8.0455749e-007  9.2895776e-002  2.5729236e-001  2.5729236e-001  2.6160717e-001 
 1.5718015e+001  1.5686335e-002  9.2720337e-002  6.1634313e-007  9.2720337e-002  2.0620681e-001  2.0620681e-001  2.1050534e-001 
 1.6842865e+001  1.5686335e-002  9.2583135e-002  4.1298935e-007  9.2583135e-002  1.5181060e-001  1.5181060e-001  1.5609641e-001 
 1.8046452e+001  1.5686335e-002  9.2486009e-002  3.2294170e-007  9.2486009e-002  9.3799062e-002  9.3799062e-002  9.8075897e-002 
 1.9334295e+001  1.5686335e-002  9.2378072e-002  7.7328060e-008  9.2378072e-002  3.1873044e-002  3.1873044e-002  3.6139898e-002 
 2.0000000e+001  1.5686335e-002  9.2378065e-002  7.7666066e-008  9.2378065e-002  0.0000000e+000  0.0000000e+000  4.2668534e-003 
 0.0000000e+000  4.8627645e-002  1.0000000e+000  0.0000000e+000  1.0000000e+000  1.5338421e+000  1.5338421e+000  2.0338421e+000 
 1.2291715e-002  4.8627645e-002  1.0263404e+000  7.0403643e-002  1.0287522e+000  1.5080066e+000  1.5080066e+000  2.0371721e+000 
 3.7736509e-002  4.8627645e-002  1.0703982e+000  1.4752936e-001  1.0805172e+000  1.4545249e+000  1.4545249e+000  2.0382836e+000 
 6.4963534e-002  4.8627645e-002  1.0892136e+000  1.7443530e-001  1.1030929e+000  1.3926138e+000  1.3926138e+000  2.0010207e+000 
 9.4095588e-002  4.8627645e-002  1.0772392e+000  1.6972739e-001  1.0905281e+000  1.3352494e+000  1.3352494e+000  1.9298753e+000 
 1.2526625e-001  4.8627645e-002  1.0401466e+000  1.4606217e-001  1.0503519e+000  1.2880242e+000  1.2880242e+000  1.8396437e+000 
 1.5861896e-001  4.8627645e-002  9.8655111e-001  1.1459212e-001  9.9318397e-001  1.2524734e+000  1.2524734e+000  1.7456806e+000 
 1.9430619e-001  4.8627645e-002  9.2470652e-001  8.4030755e-002  9.2851675e-001  1.2276447e+000  1.2276447e+000  1.6587163e+000 
 2.3249130e-001  4.8627645e-002  8.6145198e-001  5.9193719e-002  8.6348331e-001  1.2106117e+000  1.2106117e+000  1.5834134e+000 
 2.7334976e-001  4.8627645e-002  8.0147618e-001  4.1393418e-002  8.0254436e-001  1.1981696e+000  1.1981696e+000  1.5202084e+000 
 3.1706923e-001  4.8627645e-002  7.4726379e-001  2.9683663e-002  7.4785310e-001  1.1879247e+000  1.1879247e+000  1.4675668e+000 
 3.6384889e-001  4.8627645e-002  6.9957566e-001  2.2224097e-002  6.9992858e-001  1.1785141e+000  1.1785141e+000  1.4234642e+000 
 4.1390228e-001  4.8627645e-002  6.5810597e-001  1.7310765e-002  6.5833360e-001  1.1693624e+000  1.1693624e+000  1.3860639e+000 
 4.6745992e-001  4.8627645e-002  6.2208402e-001  1.3816065e-002  6.2223744e-001  1.1603037e+000  1.1603037e+000  1.3538934e+000 
 5.2476656e-001  4.8627645e-002  5.9067255e-001  1.1153142e-002  5.9077781e-001  1.1512921e+000  1.1512921e+000  1.3258014e+000 
 5.8608472e-001  4.8627645e-002  5.6313461e-001  9.0582520e-003  5.6320745e-001  1.1422725e+000  1.1422725e+000  1.3008738e+000 
 6.5169525e-001  4.8627645e-002  5.3886151e-001  7.4027013e-003  5.3891236e-001  1.1331619e+000  1.1331619e+000  1.2783751e+000 
 7.2189790e-001  4.8627645e-002  5.1735026e-001  6.0984464e-003  5.1738620e-001  1.1238707e+000  1.1238707e+000  1.2577150e+000 
 7.9701531e-001  4.8627645e-002  4.9817878e-001  5.0701499e-003  4.9820459e-001  1.1143221e+000  1.1143221e+000  1.2384260e+000 
 8.7739104e-001  4.8627645e-002  4.8099145e-001  4.2535318e-003  4.8101026e-001  1.1044588e+000  1.1044588e+000  1.2201443e+000 
 9.6339333e-001  4.8627645e-002  4.6548942e-001  3.5984768e-003  4.6550333e-001  1.0942409e+000  1.0942409e+000  1.2025876e+000 
 1.0554160e+000  4.8627645e-002  4.5142201e-001  3.0671814e-003  4.5143244e-001  1.0836408e+000  1.0836408e+000  1.1855364e+000 
 1.1538795e+000  4.8627645e-002  4.3858010e-001  2.6319050e-003  4.3858799e-001  1.0726383e+000  1.0726383e+000  1.1688180e+000 
 1.2592361e+000  4.8627645e-002  4.2678949e-001  2.2718257e-003  4.2679554e-001  1.0612175e+000  1.0612175e+000  1.1522948e+000 
 1.3719671e+000  4.8627645e-002  4.1590640e-001  1.9711910e-003  4.1591108e-001  1.0493649e+000  1.0493649e+000  1.1358559e+000 
 1.4925885e+000  4.8627645e-002  4.0581357e-001  1.7176119e-003  4.0581721e-001  1.0370675e+000  1.0370675e+000  1.1194113e+000 
 1.6216545e+000  4.8627645e-002  3.9641550e-001  1.5018093e-003  3.9641833e-001  1.0243124e+000  1.0243124e+000  1.1028861e+000 
 1.7597550e+000  4.8627645e-002  3.8763556e-001  1.3166961e-003  3.8763779e-001  1.0110849e+000  1.0110849e+000  1.0862164e+000 
 1.9075224e+000  4.8627645e-002  3.7941134e-001  1.1566735e-003  3.7941310e-001  9.9736917e-001  9.9736917e-001  1.0693463e+000 
 2.0656340e+000  4.8627645e-002  3.7169236e-001  1.0175825e-003  3.7169376e-001  9.8314649e-001  9.8314649e-001  1.0522246e+000 
 2.2348135e+000  4.8627645e-002  3.6443618e-001  8.9611544e-004  3.6443728e-001  9.6839619e-001  9.6839619e-001  1.0348035e+000 
 2.4158354e+000  4.8627645e-002  3.5760763e-001  7.8985601e-004  3.5760850e-001  9.5309532e-001  9.5309532e-001  1.0170373e+000 
 2.6095285e+000  4.8627645e-002  3.5117623e-001  6.9646089e-004  3.5117692e-001  9.3721855e-001  9.3721855e-001  9.9888116e-001 
 2.8167806e+000  4.8627645e-002  3.4511551e-001  6.1438291e-004  3.4511605e-001  9.2073840e-001  9.2073840e-001  9.8029095e-001 
 3.0385399e+000  4.8627645e-002  3.3940220e-001  5.4197648e-004  3.3940265e-001  9.0362519e-001  9.0362519e-001  9.6122229e-001 
 3.2758224e+000  4.8627645e-002  3.3401605e-001  4.7818728e-004  3.3401638e-001  8.8584697e-001  8.8584697e-001  9.4163042e-001 
 3.5297146e+000  4.8627645e-002  3.2893902e-001  4.2169384e-004  3.2893929e-001  8.6736965e-001  8.6736965e-001  9.2147017e-001 
 3.8013785e+000  4.8627645e-002  3.2415527e-001  3.7164125e-004  3.2415548e-001  8.4815639e-001  8.4815639e-001  9.0069479e-001 
 4.0920601e+000  4.8627645e-002  3.1965083e-001  3.2726862e-004  3.1965101e-001  8.2816768e-001  8.2816768e-001  8.7925607e-001 
 4.4030900e+000  4.8627645e-002  3.1541398e-001  2.8780723e-004  3.1541410e-001  8.0736107e-001  8.0736107e-001  8.5710412e-001 
 4.7358913e+000  4.8627645e-002  3.1143460e-001  2.5268292e-004  3.1143469e-001  7.8569084e-001  7.8569084e-001  8.3418661e-001 
 5.0919890e+000  4.8627645e-002  3.0770439e-001  2.2135109e-004  3.0770448e-001  7.6310664e-001  7.6310664e-001  8.1044769e-001 
 5.4730139e+000  4.8627645e-002  3.0421659e-001  1.9340866e-004  3.0421665e-001  7.3955375e-001  7.3955375e-001  7.8582764e-001 
 5.8807087e+000  4.8627645e-002  3.0096623e-001  1.6831337e-004  3.0096629e-001  7.1497214e-001  7.1497214e-001  7.6026249e-001 
 6.3169422e+000  4.8627645e-002  2.9794919e-001  1.4590044e-004  2.9794922e-001  6.8929446e-001  6.8929446e-001  7.3368132e-001 
 6.7837143e+000  4.8627645e-002  2.9516256e-001  1.2576615e-004  2.9516259e-001  6.6244662e-001  6.6244662e-001  7.0600712e-001 
 7.2831593e+000  4.8627645e-002  2.9260376e-001  1.0762019e-004  2.9260379e-001  6.3434511e-001  6.3434511e-001  6.7715359e-001 
 7.8175659e+000  4.8627645e-002  2.9027009e-001  9.1479742e-005  2.9027009e-001  6.0489666e-001  6.0489666e-001  6.4702505e-001 
 8.3893795e+000  4.8627645e-002  2.8815907e-001  7.7111217e-005  2.8815907e-001  5.7399666e-001  5.7399666e-001  6.1551452e-001 
 9.0012217e+000  4.8627645e-002  2.8626660e-001  6.4343738e-005  2.8626660e-001  5.4152679e-001  5.4152679e-001  5.8250105e-001 
 9.6558924e+000  4.8627645e-002  2.8458738e-001  5.3128726e-005  2.8458738e-001  5.0735623e-001  5.0735623e-001  5.4785120e-001 
 1.0356388e+001  4.8627645e-002  2.8311428e-001  4.3323027e-005  2.8311428e-001  4.7133809e-001  4.7133809e-001  5.1141495e-001 
 1.1105920e+001  4.8627645e-002  2.8183886e-001  3.4879828e-005  2.8183886e-001  4.3331096e-001  4.3331096e-001  4.7302753e-001 
 1.1907920e+001  4.8627645e-002  2.8074858e-001  2.7647126e-005  2.8074858e-001  3.9309493e-001  3.9309493e-001  4.3250480e-001 
 1.2766060e+001  4.8627645e-002  2.7983266e-001  2.1616521e-005  2.7983266e-001  3.5049823e-001  3.5049823e-001  3.8965139e-001 
 1.3684270e+001  4.8627645e-002  2.7907243e-001  1.6587379e-005  2.7907243e-001  3.0530402e-001  3.0530402e-001  3.4424472e-001 
 1.4666756e+001  4.8627645e-002  2.7845749e-001  1.2485773e-005  2.7845749e-001  2.5729418e-001  2.5729418e-001  2.9606345e-001 
 1.5718015e+001  4.8627645e-002  2.7796316e-001  9.3129393e-006  2.7796316e-001  2.0620818e-001  2.0620818e-001  2.4483995e-001 
 1.6842865e+001  4.8627645e-002  2.7757651e-001  6.5132031e-006  2.7757651e-001  1.5181154e-001  1.5181154e-001  1.9033590e-001 
 1.8046452e+001  4.8627645e-002  2.7730227e-001  5.2105524e-006  2.7730227e-001  9.3799829e-002  9.3799829e-002  1.3224810e-001 
 1.9334295e+001  4.8627645e-002  2.7699876e-001  2.7933620e-006  2.7699876e-001  3.1873364e-002  3.1873364e-002  7.0237517e-002 
 2.0000000e+001  4.8627645e-002  2.7699876e-001  2.7931083e-006  2.7699876e-001  0.0000000e+000  0.0000000e+000  3.8364157e-002 
 0.0000000e+000  8.4863111e-002  1.0000000e+000  0.0000000e+000  1.0000000e+000  1.4221482e+000  1.4221482e+000  1.9221482e+000 
 1.2291715e-002  8.4863111e-002  1.0050522e+000  2.6546853e-002  1.0054028e+000  1.4162650e+000  1.4162650e+000  1.9216824e+000 
 3.7736509e-002  8.4863111e-002  1.0286795e+000  7.3510855e-002  1.0313027e+000  1.4040861e+000  1.4040861e+000  1.9358788e+000 
 6.4963534e-002  8.4863111e-002  1.0675440e+000  1.0898355e-001  1.0730926e+000  1.3700662e+000  1.3700662e+000  1.9458300e+000 
 9.4095588e-002  8.4863111e-002  1.1052293e+000  1.3014053e-001  1.1128649e+000  1.3298556e+000  1.3298556e+000  1.9490896e+000 
 1.2526625e-001  8.4863111e-002  1.1313555e+000  1.3691874e-001  1.1396105e+000  1.2931665e+000  1.2931665e+000  1.9425225e+000 
 1.5861896e-001  8.4863111e-002  1.1425830e+000  1.3207963e-001  1.1501917e+000  1.2617509e+000  1.2617509e+000  1.9232215e+000 
 1.9430619e-001  8.4863111e-002  1.1388779e+000  1.1993546e-001  1.1451757e+000  1.2365651e+000  1.2365651e+000  1.8922788e+000 
 2.3249130e-001  8.4863111e-002  1.1224041e+000  1.0452180e-001  1.1272603e+000  1.2175552e+000  1.2175552e+000  1.8529130e+000 
 2.7334976e-001  8.4863111e-002  1.0965489e+000  8.8723287e-002  1.1001325e+000  1.2032707e+000  1.2032707e+000  1.8084164e+000 
 3.1706923e-001  8.4863111e-002  1.0647607e+000  7.4183635e-002  1.0673418e+000  1.1918451e+000  1.1918451e+000  1.7614543e+000 
 3.6384889e-001  8.4863111e-002  1.0298536e+000  6.1566260e-002  1.0316921e+000  1.1817991e+000  1.1817991e+000  1.7139934e+000 
 4.1390228e-001  8.4863111e-002  9.9383229e-001  5.0936311e-002  9.9513674e-001  1.1722722e+000  1.1722722e+000  1.6674207e+000 
 4.6745992e-001  8.4863111e-002  9.5801800e-001  4.2095151e-002  9.5894241e-001  1.1628940e+000  1.1628940e+000  1.6226792e+000 
 5.2476656e-001  8.4863111e-002  9.2326349e-001  3.4783758e-002  9.2391849e-001  1.1535441e+000  1.1535441e+000  1.5803567e+000 
 5.8608472e-001  8.4863111e-002  8.9012140e-001  2.8763272e-002  8.9058602e-001  1.1441730e+000  1.1441730e+000  1.5407448e+000 
 6.5169525e-001  8.4863111e-002  8.5893518e-001  2.3829641e-002  8.5926569e-001  1.1347270e+000  1.1347270e+000  1.5038958e+000 
 7.2189790e-001  8.4863111e-002  8.2988304e-001  1.9805562e-002  8.3011931e-001  1.1251390e+000  1.1251390e+000  1.4696881e+000 
 7.9701531e-001  8.4863111e-002  8.0300438e-001  1.6533777e-002  8.0317456e-001  1.1153420e+000  1.1153420e+000  1.4378867e+000 
 8.7739104e-001  8.4863111e-002  7.7823430e-001  1.3876212e-002  7.7835798e-001  1.1052783e+000  1.1052783e+000  1.4081988e+000 
 9.6339333e-001  8.4863111e-002  7.5543791e-001  1.1714722e-002  7.5552875e-001  1.0949017e+000  1.0949017e+000  1.3803135e+000 
 1.0554160e+000  8.4863111e-002  7.3444408e-001  9.9508846e-003  7.3451149e-001  1.0841773e+000  1.0841773e+000  1.3539308e+000 
 1.1538795e+000  8.4863111e-002  7.1507084e-001  8.5043814e-003  7.1512139e-001  1.0730776e+000  1.0730776e+000  1.3287768e+000 
 1.2592361e+000  8.4863111e-002  6.9714212e-001  7.3103658e-003  6.9718045e-001  1.0615804e+000  1.0615804e+000  1.3046107e+000 
 1.3719671e+000  8.4863111e-002  6.8049729e-001  6.3172043e-003  6.8052661e-001  1.0496672e+000  1.0496672e+000  1.2812254e+000 
 1.4925885e+000  8.4863111e-002  6.6499513e-001  5.4839076e-003  6.6501772e-001  1.0373218e+000  1.0373218e+000  1.2584461e+000 
 1.6216545e+000  8.4863111e-002  6.5051448e-001  4.7785589e-003  6.5053201e-001  1.0245278e+000  1.0245278e+000  1.2361238e+000 
 1.7597550e+000  8.4863111e-002  6.3695318e-001  4.1768453e-003  6.3696688e-001  1.0112687e+000  1.0112687e+000  1.2141322e+000 
 1.9075224e+000  8.4863111e-002  6.2422574e-001  3.6595883e-003  6.2423646e-001  9.9752682e-001  9.9752682e-001  1.1923624e+000 
 2.0656340e+000  8.4863111e-002  6.1226052e-001  3.2121413e-003  6.1226892e-001  9.8328233e-001  9.8328233e-001  1.1707189e+000 
 2.2348135e+000  8.4863111e-002  6.0099739e-001  2.8233584e-003  6.0100400e-001  9.6851367e-001  9.6851367e-001  1.1491166e+000 
 2.4158354e+000  8.4863111e-002  5.9038532e-001  2.4840895e-003  5.9039056e-001  9.5319718e-001  9.5319718e-001  1.1274776e+000 
 2.6095285e+000  8.4863111e-002  5.8038044e-001  2.1871931e-003  5.8038455e-001  9.3730718e-001  9.3730718e-001  1.1057303e+000 
 2.8167806e+000  8.4863111e-002  5.7094443e-001  1.9266463e-003  5.7094771e-001  9.2081553e-001  9.2081553e-001  1.0838062e+000 
 3.0385399e+000  8.4863111e-002  5.6204355e-001  1.6974899e-003  5.6204611e-001  9.0369242e-001  9.0369242e-001  1.0616404e+000 
 3.2758224e+000  8.4863111e-002  5.5364865e-001  1.4955250e-003  5.5365068e-001  8.8590568e-001  8.8590568e-001  1.0391703e+000 
 3.5297146e+000  8.4863111e-002  5.4573321e-001  1.3172829e-003  5.4573482e-001  8.6742085e-001  8.6742085e-001  1.0163341e+000 
 3.8013785e+000  8.4863111e-002  5.3827399e-001  1.1596895e-003  5.3827524e-001  8.4820110e-001  8.4820110e-001  9.9307120e-001 
 4.0920601e+000  8.4863111e-002  5.3125095e-001  1.0200581e-003  5.3125191e-001  8.2820672e-001  8.2820672e-001  9.6932101e-001 
 4.4030900e+000  8.4863111e-002  5.2464652e-001  8.9616585e-004  5.2464730e-001  8.0739522e-001  8.0739522e-001  9.4502258e-001 
 4.7358913e+000  8.4863111e-002  5.1844591e-001  7.8600977e-004  5.1844651e-001  7.8572053e-001  7.8572053e-001  9.2011392e-001 
 5.0919890e+000  8.4863111e-002  5.1263660e-001  6.8769534e-004  5.1263708e-001  7.6313245e-001  7.6313245e-001  8.9453083e-001 
 5.4730139e+000  8.4863111e-002  5.0720853e-001  6.0005061e-004  5.0720888e-001  7.3957616e-001  7.3957616e-001  8.6820656e-001 
 5.8807087e+000  8.4863111e-002  5.0215375e-001  5.2166317e-004  5.0215405e-001  7.1499151e-001  7.1499151e-001  8.4107083e-001 
 6.3169422e+000  8.4863111e-002  4.9746603e-001  4.5153225e-004  4.9746624e-001  6.8931115e-001  6.8931115e-001  8.1304747e-001 