Variables = "x","y","z", "Shear Stress_x", "Shear Stress_y", "Shear Stress_z", "Shear Stress_circ", "Skin Friction"
Zone i=1, j=22, k=2
 0.0000000e+000  0.0000000e+000  0.0000000e+000  0.0000000e+000  0.0000000e+000  0.0000000e+000  0.0000000e+000  7.0134932e-001 
 0.0000000e+000  1.5686335e-002  0.0000000e+000  2.8025969e-045  5.5620339e-041  0.0000000e+000 -2.8025969e-045 -1.1795508e-001 
 0.0000000e+000  4.8627645e-002  0.0000000e+000  0.0000000e+000  0.0000000e+000  0.0000000e+000  0.0000000e+000  6.4188957e-002 
 0.0000000e+000  8.4863111e-002  0.0000000e+000  2.8025969e-045  5.5620339e-041  0.0000000e+000 -2.8025969e-045  1.8507255e-002 
 0.0000000e+000  1.2472210e-001  0.0000000e+000  0.0000000e+000  0.0000000e+000  0.0000000e+000  0.0000000e+000  9.6159494e-003 
 0.0000000e+000  1.6856700e-001  0.0000000e+000  2.8025969e-045  5.5620339e-041  0.0000000e+000 -2.8025969e-045  5.8263349e-003 
 0.0000000e+000  2.1679640e-001  0.0000000e+000  0.0000000e+000  0.0000000e+000  0.0000000e+000  0.0000000e+000  3.7348911e-003 
 0.0000000e+000  2.6984873e-001  0.0000000e+000  2.8025969e-045  5.5620339e-041  0.0000000e+000 -2.8025969e-045  2.4313186e-003 
 0.0000000e+000  3.2820630e-001  0.0000000e+000  0.0000000e+000  0.0000000e+000  0.0000000e+000  0.0000000e+000  1.5316898e-003 
 0.0000000e+000  3.9239961e-001  0.0000000e+000  2.8025969e-045  5.5620339e-041  0.0000000e+000 -2.8025969e-045  8.5411913e-004 
 0.0000000e+000  4.6301234e-001  0.0000000e+000  0.0000000e+000  0.0000000e+000  0.0000000e+000  0.0000000e+000  2.8731642e-004 
 0.0000000e+000  5.3838348e-001  0.0000000e+000  2.8025969e-045  5.5620339e-041  0.0000000e+000 -2.8025969e-045  2.9196602e-004 
 0.0000000e+000  6.1131215e-001  0.0000000e+000  0.0000000e+000  0.0000000e+000  0.0000000e+000  0.0000000e+000  8.7853515e-004 
 0.0000000e+000  6.7694795e-001  0.0000000e+000  2.8025969e-045  5.5620339e-041  0.0000000e+000 -2.8025969e-045  1.5856534e-003 
 0.0000000e+000  7.3602021e-001  0.0000000e+000  0.0000000e+000  0.0000000e+000  0.0000000e+000  0.0000000e+000  2.5324044e-003 
 0.0000000e+000  7.8918511e-001  0.0000000e+000  2.8025969e-045  5.5620339e-041  0.0000000e+000 -2.8025969e-045  3.9182873e-003 
 0.0000000e+000  8.3703363e-001  0.0000000e+000  0.0000000e+000  0.0000000e+000  0.0000000e+000  0.0000000e+000  6.1750314e-003 
 0.0000000e+000  8.8009727e-001  0.0000000e+000  2.8025969e-045  5.5620339e-041  0.0000000e+000 -2.8025969e-045  1.0302985e-002 
 0.0000000e+000  9.1885448e-001  0.0000000e+000  0.0000000e+000  0.0000000e+000  0.0000000e+000  0.0000000e+000  2.0552717e-002 
 0.0000000e+000  9.5373595e-001  0.0000000e+000  2.8025969e-045  5.5620339e-041  0.0000000e+000 -2.8025969e-045  7.1215935e-002 
 0.0000000e+000  9.8512936e-001  0.0000000e+000  0.0000000e+000  0.0000000e+000  0.0000000e+000  0.0000000e+000 -1.2606691e-001 
 0.0000000e+000  1.0000000e+000  0.0000000e+000  2.8025969e-045  5.5620339e-041  0.0000000e+000 -2.8025969e-045  7.4187165e-001 
 0.0000000e+000  0.0000000e+000  1.0000000e+000  6.8163854e-001  8.6061329e-005  0.0000000e+000  0.0000000e+000  7.0134932e-001 
 0.0000000e+000  1.5686335e-002  1.0000000e+000  1.6972651e-001 -2.7899392e-004  0.0000000e+000 -1.6972651e-001 -1.1795508e-001 
 0.0000000e+000  4.8627645e-002  1.0000000e+000 -4.8685960e-002  1.0273900e-004  0.0000000e+000  4.8685960e-002  6.4188957e-002 
 0.0000000e+000  8.4863111e-002  1.0000000e+000  1.0743872e-001 -8.7250717e-004  0.0000000e+000 -1.0743872e-001  1.8507255e-002 
 0.0000000e+000  1.2472210e-001  1.0000000e+000  3.6431212e-002  1.4017358e-004  0.0000000e+000 -3.6431212e-002  9.6159494e-003 
 0.0000000e+000  1.6856700e-001  1.0000000e+000  5.2848738e-002 -1.5794456e-003  0.0000000e+000 -5.2848738e-002  5.8263349e-003 
 0.0000000e+000  2.1679640e-001  1.0000000e+000  3.8791683e-003  2.1130664e-004  0.0000000e+000 -3.8791683e-003  3.7348911e-003 
 0.0000000e+000  2.6984873e-001  1.0000000e+000  1.8096147e-002 -2.5235731e-003  0.0000000e+000 -1.8096147e-002  2.4313186e-003 
 0.0000000e+000  3.2820630e-001  1.0000000e+000  1.1645391e-003  3.3113404e-004  0.0000000e+000 -1.1645391e-003  1.5316898e-003 
 0.0000000e+000  3.9239961e-001  1.0000000e+000  9.5451726e-003 -3.9042700e-003  0.0000000e+000 -9.5451726e-003  8.5411913e-004 
 0.0000000e+000  4.6301234e-001  1.0000000e+000  5.4787606e-004  6.0039875e-004  0.0000000e+000 -5.4787606e-004  2.8731642e-004 
 0.0000000e+000  5.3838348e-001  1.0000000e+000  5.8005182e-003 -6.1457735e-003  0.0000000e+000 -5.8005182e-003  2.9196602e-004 
 0.0000000e+000  6.1131215e-001  1.0000000e+000  3.1238599e-004  1.2845257e-003  0.0000000e+000 -3.1238599e-004  8.7853515e-004 
 0.0000000e+000  6.7694795e-001  1.0000000e+000  3.7218041e-003 -1.0222598e-002  0.0000000e+000 -3.7218041e-003  1.5856534e-003 
 0.0000000e+000  7.3602021e-001  1.0000000e+000  2.0217747e-004  4.8546139e-003  0.0000000e+000 -2.0217747e-004  2.5324044e-003 
 0.0000000e+000  7.8918511e-001  1.0000000e+000  2.4228978e-003 -1.9971153e-002  0.0000000e+000 -2.4228978e-003  3.9182873e-003 
 0.0000000e+000  8.3703363e-001  1.0000000e+000  1.3682648e-004  4.1053787e-002  0.0000000e+000 -1.3682648e-004  6.1750314e-003 
 0.0000000e+000  8.8009727e-001  1.0000000e+000  1.5255662e-003 -5.8191884e-002  0.0000000e+000 -1.5255662e-003  1.0302985e-002 
 0.0000000e+000  9.1885448e-001  1.0000000e+000  1.0088761e-004 -5.6270007e-002  0.0000000e+000 -1.0088761e-004  2.0552717e-002 
 0.0000000e+000  9.5373595e-001  1.0000000e+000  8.4813981e-004 -1.1281202e-001  0.0000000e+000 -8.4813981e-004  7.1215935e-002 
 0.0000000e+000  9.8512936e-001  1.0000000e+000  8.6286280e-005  7.1783268e-001  0.0000000e+000 -8.6286280e-005 -1.2606691e-001 
 0.0000000e+000  1.0000000e+000  1.0000000e+000  2.7405363e-004 -1.9094589e-001  0.0000000e+000 -2.7405363e-004  7.4187165e-001 
Zone i=1, j=22, k=2
 2.0000000e+001  0.0000000e+000  0.0000000e+000  0.0000000e+000  5.1147394e-043  0.0000000e+000  5.1147394e-043  4.7817223e-002 
 2.0000000e+001  1.5686335e-002  0.0000000e+000  0.0000000e+000  0.0000000e+000  0.0000000e+000  0.0000000e+000  4.7078095e-002 
 2.0000000e+001  4.8627645e-002  0.0000000e+000  0.0000000e+000  5.1147394e-043  0.0000000e+000  5.1147243e-043  4.3198925e-002 
 2.0000000e+001  8.4863111e-002  0.0000000e+000  0.0000000e+000  0.0000000e+000  0.0000000e+000  0.0000000e+000  3.9703496e-002 
 2.0000000e+001  1.2472210e-001  0.0000000e+000  0.0000000e+000  5.1147394e-043  0.0000000e+000  5.1146399e-043  3.5856288e-002 
 2.0000000e+001  1.6856700e-001  0.0000000e+000  0.0000000e+000  0.0000000e+000  0.0000000e+000  0.0000000e+000  3.1622130e-002 
 2.0000000e+001  2.1679640e-001  0.0000000e+000  0.0000000e+000  5.1147394e-043  0.0000000e+000  5.1144389e-043  2.6964786e-002 
 2.0000000e+001  2.6984873e-001  0.0000000e+000  0.0000000e+000  0.0000000e+000  0.0000000e+000  0.0000000e+000  2.1847256e-002 
 2.0000000e+001  3.2820630e-001  0.0000000e+000  0.0000000e+000  5.1147394e-043  0.0000000e+000  5.1140508e-043  1.6233096e-002 
 2.0000000e+001  3.9239961e-001  0.0000000e+000  0.0000000e+000  0.0000000e+000  0.0000000e+000  0.0000000e+000  1.0082992e-002 
 2.0000000e+001  4.6301234e-001  0.0000000e+000  0.0000000e+000  5.1147394e-043  0.0000000e+000  5.1133693e-043  3.3468227e-003 
 2.0000000e+001  5.3838348e-001  0.0000000e+000  0.0000000e+000  0.0000000e+000  0.0000000e+000  0.0000000e+000  3.4564445e-003 
 2.0000000e+001  6.1131215e-001  0.0000000e+000  0.0000000e+000  5.1147394e-043  0.0000000e+000  5.1123518e-043  1.0420525e-002 
 2.0000000e+001  6.7694795e-001  0.0000000e+000  0.0000000e+000  0.0000000e+000  0.0000000e+000  0.0000000e+000  1.6716074e-002 
 2.0000000e+001  7.3602021e-001  0.0000000e+000  0.0000000e+000  5.1147394e-043  0.0000000e+000  5.1112794e-043  2.2405848e-002 
 2.0000000e+001  7.8918511e-001  0.0000000e+000  0.0000000e+000  0.0000000e+000  0.0000000e+000  0.0000000e+000  2.7539879e-002 
 2.0000000e+001  8.3703363e-001  0.0000000e+000  0.0000000e+000  5.1147394e-043  0.0000000e+000  5.1102659e-043  3.2165024e-002 
 2.0000000e+001  8.8009727e-001  0.0000000e+000  0.0000000e+000  0.0000000e+000  0.0000000e+000  0.0000000e+000  3.6327619e-002 
 2.0000000e+001  9.1885448e-001  0.0000000e+000  0.0000000e+000  5.1147394e-043  0.0000000e+000  5.1093500e-043  4.0072002e-002 
 2.0000000e+001  9.5373595e-001  0.0000000e+000  0.0000000e+000  0.0000000e+000  0.0000000e+000  0.0000000e+000  4.3440070e-002 
 2.0000000e+001  9.8512936e-001  0.0000000e+000  0.0000000e+000  5.1147394e-043  0.0000000e+000  5.1085460e-043  4.7488466e-002 
 2.0000000e+001  1.0000000e+000  0.0000000e+000  0.0000000e+000  0.0000000e+000  0.0000000e+000  0.0000000e+000  4.7813896e-002 
 2.0000000e+001  0.0000000e+000  1.0000000e+000  4.7817226e-002  4.1380918e-006  0.0000000e+000  4.1380918e-006  4.7817223e-002 
 2.0000000e+001  1.5686335e-002  1.0000000e+000 -3.1553841e-007  3.4564422e-003  0.0000000e+000  3.4564413e-003  4.7078095e-002 
 2.0000000e+001  4.8627645e-002  1.0000000e+000 -4.5677112e-007  2.5566806e-006  0.0000000e+000  2.5577836e-006  4.3198925e-002 
 2.0000000e+001  8.4863111e-002  1.0000000e+000 -4.7078099e-002  1.0420525e-002  0.0000000e+000  1.0620189e-002  3.9703496e-002 
 2.0000000e+001  1.2472210e-001  1.0000000e+000 -1.2849845e-006  5.2461189e-007  0.0000000e+000  5.3261483e-007  3.5856288e-002 
 2.0000000e+001  1.6856700e-001  1.0000000e+000 -4.3198921e-002  1.6716074e-002  0.0000000e+000  1.7079563e-002  3.1622130e-002 
 2.0000000e+001  2.1679640e-001  1.0000000e+000 -1.9730428e-006 -1.1425014e-006  0.0000000e+000 -1.1210482e-006  2.6964786e-002 
 2.0000000e+001  2.6984873e-001  1.0000000e+000 -3.9703496e-002  2.2405848e-002  0.0000000e+000  2.2939457e-002  2.1847256e-002 
 2.0000000e+001  3.2820630e-001  1.0000000e+000 -2.4283447e-006 -2.1417475e-006  0.0000000e+000 -2.1016146e-006  1.6233096e-002 
 2.0000000e+001  3.9239961e-001  1.0000000e+000 -3.5856288e-002  2.7539879e-002  0.0000000e+000  2.8237944e-002  1.0082992e-002 
 2.0000000e+001  4.6301234e-001  1.0000000e+000 -2.5278205e-006 -2.4948504e-006  0.0000000e+000 -2.4356772e-006  3.3468227e-003 
 2.0000000e+001  5.3838348e-001  1.0000000e+000 -3.1622130e-002  3.2165024e-002  0.0000000e+000  3.3004310e-002  3.4564445e-003 
 2.0000000e+001  6.1131215e-001  1.0000000e+000 -2.1150179e-006 -2.3594675e-006  0.0000000e+000 -2.2937495e-006  1.0420525e-002 
 2.0000000e+001  6.7694795e-001  1.0000000e+000 -2.6964786e-002  3.6327619e-002  0.0000000e+000  3.7218993e-002  1.6716074e-002 
 2.0000000e+001  7.3602021e-001  1.0000000e+000 -1.0584063e-006 -1.8881557e-006  0.0000000e+000 -1.8479543e-006  2.2405848e-002 
 2.0000000e+001  7.8918511e-001  1.0000000e+000 -2.1847257e-002  4.0071998e-002  0.0000000e+000  4.0902244e-002  2.7539879e-002 
 2.0000000e+001  8.3703363e-001  1.0000000e+000  6.2216901e-007 -1.2194154e-006  0.0000000e+000 -1.2443649e-006  3.2165024e-002 
 2.0000000e+001  8.8009727e-001  1.0000000e+000 -1.6233094e-002  4.3440074e-002  0.0000000e+000  4.4111720e-002  3.6327619e-002 
 2.0000000e+001  9.1885448e-001  1.0000000e+000  2.6002010e-006 -4.3017940e-007  0.0000000e+000 -5.4906056e-007  4.0072002e-002 
 2.0000000e+001  9.5373595e-001  1.0000000e+000 -1.0082991e-002  4.7488466e-002  0.0000000e+000  4.7914842e-002  4.3440070e-002 
 2.0000000e+001  9.8512936e-001  1.0000000e+000  4.1149829e-006  4.7813896e-002  0.0000000e+000  4.7755796e-002  4.7488466e-002 
 2.0000000e+001  1.0000000e+000  1.0000000e+000 -3.3468201e-003 -2.3188918e-006  0.0000000e+000  1.6481622e-004  4.7813896e-002 
Zone i=62, j=1, k=2
 0.0000000e+000  0.0000000e+000  0.0000000e+000  5.1147394e-043 -4.5974182e+001  0.0000000e+000  0.0000000e+000  7.0134932e-001 
 1.2291715e-002  0.0000000e+000  0.0000000e+000  2.5598920e-041  0.0000000e+000  0.0000000e+000  0.0000000e+000  6.6675258e-001 
 3.7736509e-002  0.0000000e+000  0.0000000e+000  5.1147394e-043  3.0124536e+032  0.0000000e+000  3.0124536e+032  5.9513462e-001 
 6.4963534e-002  0.0000000e+000  0.0000000e+000  0.0000000e+000  0.0000000e+000  0.0000000e+000  0.0000000e+000  4.8009995e-001 
 9.4095588e-002  0.0000000e+000  0.0000000e+000  0.0000000e+000 -2.2493061e+032  0.0000000e+000 -2.2493061e+032  3.7146875e-001 
 1.2526625e-001  0.0000000e+000  0.0000000e+000  3.0141946e+032  4.5909340e-041  0.0000000e+000  4.5909340e-041  2.8671986e-001 
 1.5861896e-001  0.0000000e+000  0.0000000e+000  0.0000000e+000  0.0000000e+000  0.0000000e+000  0.0000000e+000  2.2624877e-001 
 1.9430619e-001  0.0000000e+000  0.0000000e+000 -1.3758606e+035  1.6480671e-041  0.0000000e+000  1.6480671e-041  1.8569314e-001 
 2.3249130e-001  0.0000000e+000  0.0000000e+000  0.0000000e+000  0.0000000e+000  0.0000000e+000  0.0000000e+000  1.5952916e-001 
 2.7334976e-001  0.0000000e+000  0.0000000e+000 -3.0102598e+035  5.1147394e-043  0.0000000e+000  5.1147394e-043  1.4266543e-001 
 3.1706923e-001  0.0000000e+000  0.0000000e+000  9.2485699e-044  2.9908825e+032  0.0000000e+000  2.9908825e+032  1.3124032e-001 
 3.6384889e-001  0.0000000e+000  0.0000000e+000 -3.0102598e+035  5.1147394e-043  0.0000000e+000  5.1147394e-043  1.2271855e-001 
 4.1390228e-001  0.0000000e+000  0.0000000e+000  5.1147394e-043  0.0000000e+000  0.0000000e+000  0.0000000e+000  1.1569220e-001 
 4.6745992e-001  0.0000000e+000  0.0000000e+000 -1.#QNAN00e+000  0.0000000e+000  0.0000000e+000 -1.#QNAN00e+000  1.0954592e-001 
 5.2476656e-001  0.0000000e+000  0.0000000e+000  5.1147394e-043 -4.5974243e+001  0.0000000e+000 -4.5974243e+001  1.0408149e-001 
 5.8608472e-001  0.0000000e+000  0.0000000e+000 -1.#QNAN00e+000 -1.#QNAN00e+000  0.0000000e+000 -1.#QNAN00e+000  9.9238493e-002 
 6.5169525e-001  0.0000000e+000  0.0000000e+000  4.5909340e-041 -2.6551037e+035  0.0000000e+000 -2.6551037e+035  9.4964579e-002 
 7.2189790e-001  0.0000000e+000  0.0000000e+000 -3.0102550e+035  5.1147394e-043  0.0000000e+000  5.1147394e-043  9.1188796e-002 
 7.9701531e-001  0.0000000e+000  0.0000000e+000  0.0000000e+000  0.0000000e+000  0.0000000e+000  0.0000000e+000  8.7832876e-002 
 8.7739104e-001  0.0000000e+000  0.0000000e+000  0.0000000e+000  2.2958874e-041  0.0000000e+000  2.2958874e-041  8.4825926e-002 
 9.6339333e-001  0.0000000e+000  0.0000000e+000  0.0000000e+000  2.9387429e-039  0.0000000e+000  2.9387429e-039  8.2108863e-002 
 1.0554160e+000  0.0000000e+000  0.0000000e+000  0.0000000e+000  2.4887061e-041  0.0000000e+000  2.4887061e-041  7.9634748e-002 
 1.1538795e+000  0.0000000e+000  0.0000000e+000  0.0000000e+000  8.1090042e+001  0.0000000e+000  8.1090042e+001  7.7366285e-002 
 1.2592361e+000  0.0000000e+000  0.0000000e+000  0.0000000e+000  1.4012985e-045  0.0000000e+000  1.4012985e-045  7.5273499e-002 
 1.3719671e+000  0.0000000e+000  0.0000000e+000  0.0000000e+000  2.9387429e-039  0.0000000e+000  2.9387429e-039  7.3332280e-002 
 1.4925885e+000  0.0000000e+000  0.0000000e+000  0.0000000e+000  2.4887061e-041  0.0000000e+000  2.4887061e-041  7.1523607e-002 
 1.6216545e+000  0.0000000e+000  0.0000000e+000  0.0000000e+000  8.1090042e+001  0.0000000e+000  8.1090042e+001  6.9832139e-002 
 1.7597550e+000  0.0000000e+000  0.0000000e+000  0.0000000e+000  5.6051939e-045  0.0000000e+000  5.6051939e-045  6.8245873e-002 
 1.9075224e+000  0.0000000e+000  0.0000000e+000  0.0000000e+000  4.4841551e-044  0.0000000e+000  4.4841551e-044  6.6755034e-002 
 2.0656340e+000  0.0000000e+000  0.0000000e+000  0.0000000e+000  0.0000000e+000  0.0000000e+000  0.0000000e+000  6.5351710e-002 
 2.2348135e+000  0.0000000e+000  0.0000000e+000  0.0000000e+000  5.6051939e-045  0.0000000e+000  5.6051939e-045  6.4029306e-002 
 2.4158354e+000  0.0000000e+000  0.0000000e+000  0.0000000e+000  2.2450623e-040  0.0000000e+000  2.2450623e-040  6.2782124e-002 
 2.6095285e+000  0.0000000e+000  0.0000000e+000  0.0000000e+000  0.0000000e+000  0.0000000e+000  0.0000000e+000  6.1605282e-002 
 2.8167806e+000  0.0000000e+000  0.0000000e+000  0.0000000e+000  0.0000000e+000  0.0000000e+000  0.0000000e+000  6.0494341e-002 
 3.0385399e+000  0.0000000e+000  0.0000000e+000  0.0000000e+000  8.6488141e-042  0.0000000e+000  8.6488141e-042  5.9445418e-002 
 3.2758224e+000  0.0000000e+000  0.0000000e+000  0.0000000e+000  0.0000000e+000  0.0000000e+000  0.0000000e+000  5.8455046e-002 
 3.5297146e+000  0.0000000e+000  0.0000000e+000  0.0000000e+000  2.9387429e-039  0.0000000e+000  2.9387429e-039  5.7520129e-002 
 3.8013785e+000  0.0000000e+000  0.0000000e+000  0.0000000e+000  0.0000000e+000  0.0000000e+000  0.0000000e+000  5.6637894e-002 
 4.0920601e+000  0.0000000e+000  0.0000000e+000  0.0000000e+000  0.0000000e+000  0.0000000e+000  0.0000000e+000  5.5805977e-002 
 4.4030900e+000  0.0000000e+000  0.0000000e+000  0.0000000e+000  1.4012985e-045  0.0000000e+000  1.4012985e-045  5.5022310e-002 
 4.7358913e+000  0.0000000e+000  0.0000000e+000  0.0000000e+000  2.9387429e-039  0.0000000e+000  2.9387429e-039  5.4285210e-002 
 5.0919890e+000  0.0000000e+000  0.0000000e+000  0.0000000e+000  2.8025969e-045  0.0000000e+000  2.8025969e-045  5.3593189e-002 
 5.4730139e+000  0.0000000e+000  0.0000000e+000  0.0000000e+000  5.6051939e-045  0.0000000e+000  5.6051939e-045  5.2945171e-002 
 5.8807087e+000  0.0000000e+000  0.0000000e+000  0.0000000e+000  2.2958874e-041  0.0000000e+000  2.2958874e-041  5.2340358e-002 
 6.3169422e+000  0.0000000e+000  0.0000000e+000  0.0000000e+000 -4.5974182e+001  0.0000000e+000 -4.5974182e+001  5.1778112e-002 
 6.7837143e+000  0.0000000e+000  0.0000000e+000  0.0000000e+000  0.0000000e+000  0.0000000e+000  0.0000000e+000  5.1258028e-002 
 7.2831593e+000  0.0000000e+000  0.0000000e+000  0.0000000e+000  3.0124536e+032  0.0000000e+000  3.0124536e+032  5.0779801e-002 
 7.8175659e+000  0.0000000e+000  0.0000000e+000  0.0000000e+000  0.0000000e+000  0.0000000e+000  0.0000000e+000  5.0343018e-002 
 8.3893795e+000  0.0000000e+000  0.0000000e+000  0.0000000e+000 -2.2493061e+032  0.0000000e+000 -2.2493061e+032  4.9947418e-002 
 9.0012217e+000  0.0000000e+000  0.0000000e+000  0.0000000e+000  4.5909340e-041  0.0000000e+000  4.5909340e-041  4.9592309e-002 
 9.6558924e+000  0.0000000e+000  0.0000000e+000  0.0000000e+000  0.0000000e+000  0.0000000e+000  0.0000000e+000  4.9276892e-002 
 1.0356388e+001  0.0000000e+000  0.0000000e+000  0.0000000e+000  1.6480671e-041  0.0000000e+000  1.6480671e-041  4.8999865e-002 
 1.1105920e+001  0.0000000e+000  0.0000000e+000  0.0000000e+000  0.0000000e+000  0.0000000e+000  0.0000000e+000  4.8759826e-002 
 1.1907920e+001  0.0000000e+000  0.0000000e+000  0.0000000e+000  5.1147394e-043  0.0000000e+000  5.1147394e-043  4.8554447e-002 
 1.2766060e+001  0.0000000e+000  0.0000000e+000  0.0000000e+000  2.9908825e+032  0.0000000e+000  2.9908825e+032  4.8381817e-002 
 1.3684270e+001  0.0000000e+000  0.0000000e+000  0.0000000e+000  5.1147394e-043  0.0000000e+000  5.1147394e-043  4.8238423e-002 
 1.4666756e+001  0.0000000e+000  0.0000000e+000  0.0000000e+000  0.0000000e+000  0.0000000e+000  0.0000000e+000  4.8122436e-002 
 1.5718015e+001  0.0000000e+000  0.0000000e+000  0.0000000e+000  0.0000000e+000  0.0000000e+000  0.0000000e+000  4.8029076e-002 
 1.6842865e+001  0.0000000e+000  0.0000000e+000  0.0000000e+000 -4.5974243e+001  0.0000000e+000 -4.5974243e+001  4.7956072e-002 
 1.8046452e+001  0.0000000e+000  0.0000000e+000  0.0000000e+000 -1.#QNAN00e+000  0.0000000e+000 -1.#QNAN00e+000  4.7904436e-002 
 1.9334295e+001  0.0000000e+000  0.0000000e+000  0.0000000e+000 -2.6549642e+035  0.0000000e+000 -2.6549642e+035  4.7846943e-002 
 2.0000000e+001  0.0000000e+000  0.0000000e+000  0.0000000e+000  5.1147394e-043  0.0000000e+000  5.1147394e-043  4.7817223e-002 
 0.0000000e+000  0.0000000e+000  1.0000000e+000  6.8163854e-001  6.2782094e-002  0.0000000e+000  0.0000000e+000  7.0134932e-001 
 1.2291715e-002  0.0000000e+000  1.0000000e+000  1.6972651e-001 -5.9882688e-005  0.0000000e+000 -5.9882688e-005  6.6675258e-001 
 3.7736509e-002  0.0000000e+000  1.0000000e+000  6.4184189e-001  6.1605260e-002  0.0000000e+000  6.1605260e-002  5.9513462e-001 
 6.4963534e-002  0.0000000e+000  1.0000000e+000  1.8054925e-001 -5.1830662e-005  0.0000000e+000 -5.1830662e-005  4.8009995e-001 
 9.4095588e-002  0.0000000e+000  1.0000000e+000  5.5945975e-001  6.0494326e-002  0.0000000e+000  6.0494326e-002  3.7146875e-001 
 1.2526625e-001  0.0000000e+000  1.0000000e+000  2.0295317e-001 -4.4948432e-005  0.0000000e+000 -4.4948432e-005  2.8671986e-001 
 1.5861896e-001  0.0000000e+000  1.0000000e+000  4.5698619e-001  5.9445407e-002  0.0000000e+000  5.9445407e-002  2.2624877e-001 
 1.9430619e-001  0.0000000e+000  1.0000000e+000  1.4717200e-001 -3.9034225e-005  0.0000000e+000 -3.9034225e-005  1.8569314e-001 
 2.3249130e-001  0.0000000e+000  1.0000000e+000  3.6069953e-001  5.8455035e-002  0.0000000e+000  5.8455035e-002  1.5952916e-001 
 2.7334976e-001  0.0000000e+000  1.0000000e+000  8.8796891e-002 -3.3968598e-005  0.0000000e+000 -3.3968598e-005  1.4266543e-001 
 3.1706923e-001  0.0000000e+000  1.0000000e+000  2.8338248e-001  5.7520121e-002  0.0000000e+000  5.7520121e-002  1.3124032e-001 
 3.6384889e-001  0.0000000e+000  1.0000000e+000  4.3619324e-002 -2.9503812e-005  0.0000000e+000 -2.9503812e-005  1.2271855e-001 
 4.1390228e-001  0.0000000e+000  1.0000000e+000  2.2580011e-001  5.6637891e-002  0.0000000e+000  5.6637891e-002  1.1569220e-001 
 4.6745992e-001  0.0000000e+000  1.0000000e+000  1.4241491e-002 -2.5605703e-005  0.0000000e+000 -2.5605703e-005  1.0954592e-001 
 5.2476656e-001  0.0000000e+000  1.0000000e+000  1.8568888e-001  5.5805974e-002  0.0000000e+000  5.5805974e-002  1.0408149e-001 
 5.8608472e-001  0.0000000e+000  1.0000000e+000 -1.2566099e-003 -2.2294633e-005  0.0000000e+000 -2.2294633e-005  9.9238493e-002 
 6.5169525e-001  0.0000000e+000  1.0000000e+000  1.5936431e-001  5.5022310e-002  0.0000000e+000  5.5022310e-002  9.4964579e-002 
 7.2189790e-001  0.0000000e+000  1.0000000e+000 -7.2506457e-003 -1.9299332e-005  0.0000000e+000 -1.9299332e-005  9.1188796e-002 
 7.9701531e-001  0.0000000e+000  1.0000000e+000  1.4243978e-001  5.4285202e-002  0.0000000e+000  5.4285202e-002  8.7832876e-002 
 8.7739104e-001  0.0000000e+000  1.0000000e+000 -8.0210706e-003 -1.6782928e-005  0.0000000e+000 -1.6782928e-005  8.4825926e-002 
 9.6339333e-001  0.0000000e+000  1.0000000e+000  1.3107252e-001  5.3593185e-002  0.0000000e+000  5.3593185e-002  8.2108863e-002 
 1.0554160e+000  0.0000000e+000  1.0000000e+000 -6.6344677e-003 -1.4608188e-005  0.0000000e+000 -1.4608188e-005  7.9634748e-002 
 1.1538795e+000  0.0000000e+000  1.0000000e+000  1.2262296e-001  5.2945171e-002  0.0000000e+000  5.2945171e-002  7.7366285e-002 
 1.2592361e+000  0.0000000e+000  1.0000000e+000 -4.8426823e-003 -1.2557442e-005  0.0000000e+000 -1.2557442e-005  7.5273499e-002 
 1.3719671e+000  0.0000000e+000  1.0000000e+000  1.1564294e-001  5.2340358e-002  0.0000000e+000  5.2340358e-002  7.3332280e-002 
 1.4925885e+000  0.0000000e+000  1.0000000e+000 -3.3759368e-003 -1.0779463e-005  0.0000000e+000 -1.0779463e-005  7.1523607e-002 
 1.6216545e+000  0.0000000e+000  1.0000000e+000  1.0952031e-001  5.1778112e-002  0.0000000e+000  5.1778112e-002  6.9832139e-002 
 1.7597550e+000  0.0000000e+000  1.0000000e+000 -2.3683566e-003 -9.2981900e-006  0.0000000e+000 -9.2981900e-006  6.8245873e-002 
 1.9075224e+000  0.0000000e+000  1.0000000e+000  1.0406730e-001  5.1258031e-002  0.0000000e+000  5.1258031e-002  6.6755034e-002 
 2.0656340e+000  0.0000000e+000  1.0000000e+000 -1.7185605e-003 -8.0759874e-006  0.0000000e+000 -8.0759874e-006  6.5351710e-002 
 2.2348135e+000  0.0000000e+000  1.0000000e+000  9.9230066e-002  5.0779797e-002  0.0000000e+000  5.0779797e-002  6.4029306e-002 
 2.4158354e+000  0.0000000e+000  1.0000000e+000 -1.2933494e-003 -6.7539718e-006  0.0000000e+000 -6.7539718e-006  6.2782124e-002 
 2.6095285e+000  0.0000000e+000  1.0000000e+000  9.4959319e-002  5.0343014e-002  0.0000000e+000  5.0343014e-002  6.1605282e-002 
 2.8167806e+000  0.0000000e+000  1.0000000e+000 -9.9936093e-004 -5.6853255e-006  0.0000000e+000 -5.6853255e-006  6.0494341e-002 
 3.0385399e+000  0.0000000e+000  1.0000000e+000  9.1185421e-002  4.9947418e-002  0.0000000e+000  4.9947418e-002  5.9445418e-002 
 3.2758224e+000  0.0000000e+000  1.0000000e+000 -7.8409573e-004 -4.7638750e-006  0.0000000e+000 -4.7638750e-006  5.8455046e-002 
 3.5297146e+000  0.0000000e+000  1.0000000e+000  8.7830685e-002  4.9592312e-002  0.0000000e+000  4.9592312e-002  5.7520129e-002 
 3.8013785e+000  0.0000000e+000  1.0000000e+000 -6.2095764e-004 -3.9491679e-006  0.0000000e+000 -3.9491679e-006  5.6637894e-002 
 4.0920601e+000  0.0000000e+000  1.0000000e+000  8.4824480e-002  4.9276892e-002  0.0000000e+000  4.9276892e-002  5.5805977e-002 
 4.4030900e+000  0.0000000e+000  1.0000000e+000 -4.9559138e-004 -3.2354078e-006  0.0000000e+000 -3.2354078e-006  5.5022310e-002 
 4.7358913e+000  0.0000000e+000  1.0000000e+000  8.2107894e-002  4.8999865e-002  0.0000000e+000  4.8999865e-002  5.4285210e-002 
 5.0919890e+000  0.0000000e+000  1.0000000e+000 -3.9891788e-004 -2.5914521e-006  0.0000000e+000 -2.5914521e-006  5.3593189e-002 
 5.4730139e+000  0.0000000e+000  1.0000000e+000  7.9634093e-002  4.8759822e-002  0.0000000e+000  4.8759822e-002  5.2945171e-002 
 5.8807087e+000  0.0000000e+000  1.0000000e+000 -3.2354944e-004 -2.0906057e-006  0.0000000e+000 -2.0906057e-006  5.2340358e-002 
 6.3169422e+000  0.0000000e+000  1.0000000e+000  7.7365823e-002  4.8554447e-002  0.0000000e+000  4.8554447e-002  5.1778112e-002 
 6.7837143e+000  0.0000000e+000  1.0000000e+000 -2.6482469e-004 -1.6062081e-006  0.0000000e+000 -1.6062081e-006  5.1258028e-002 
 7.2831593e+000  0.0000000e+000  1.0000000e+000  7.5273179e-002  4.8381820e-002  0.0000000e+000  4.8381820e-002  5.0779801e-002 
 7.8175659e+000  0.0000000e+000  1.0000000e+000 -2.1860053e-004 -1.2725704e-006  0.0000000e+000 -1.2725704e-006  5.0343018e-002 
 8.3893795e+000  0.0000000e+000  1.0000000e+000  7.3332056e-002  4.8238423e-002  0.0000000e+000  4.8238423e-002  4.9947418e-002 
 9.0012217e+000  0.0000000e+000  1.0000000e+000 -1.8214220e-004 -1.0096289e-006  0.0000000e+000 -1.0096289e-006  4.9592309e-002 
 9.6558924e+000  0.0000000e+000  1.0000000e+000  7.1523443e-002  4.8122436e-002  0.0000000e+000  4.8122436e-002  4.9276892e-002 
 1.0356388e+001  0.0000000e+000  1.0000000e+000 -1.5257733e-004 -7.3717365e-007  0.0000000e+000 -7.3717365e-007  4.8999865e-002 
 1.1105920e+001  0.0000000e+000  1.0000000e+000  6.9832012e-002  4.8029076e-002  0.0000000e+000  4.8029076e-002  4.8759826e-002 
 1.1907920e+001  0.0000000e+000  1.0000000e+000 -1.2908106e-004 -5.3727086e-007  0.0000000e+000 -5.3727086e-007  4.8554447e-002 
 1.2766060e+001  0.0000000e+000  1.0000000e+000  6.8245783e-002  4.7956072e-002  0.0000000e+000  4.7956072e-002  4.8381817e-002 
 1.3684270e+001  0.0000000e+000  1.0000000e+000 -1.0959290e-004 -3.9541368e-007  0.0000000e+000 -3.9541368e-007  4.8238423e-002 
 1.4666756e+001  0.0000000e+000  1.0000000e+000  6.6754967e-002  4.7904432e-002  0.0000000e+000  4.7904432e-002  4.8122436e-002 
 1.5718015e+001  0.0000000e+000  1.0000000e+000 -9.3721785e-005 -3.3130272e-007  0.0000000e+000 -3.3130272e-007  4.8029076e-002 
 1.6842865e+001  0.0000000e+000  1.0000000e+000  6.5351665e-002  4.7846943e-002  0.0000000e+000  4.7846943e-002  4.7956072e-002 
 1.8046452e+001  0.0000000e+000  1.0000000e+000 -8.0541860e-005 -3.2091037e-007  0.0000000e+000 -3.2091037e-007  4.7904436e-002 
 1.9334295e+001  0.0000000e+000  1.0000000e+000  6.4029269e-002  4.7817226e-002  0.0000000e+000  4.7817226e-002  4.7846943e-002 
 2.0000000e+001  0.0000000e+000  1.0000000e+000 -6.9171445e-005 -3.1553841e-007  0.0000000e+000 -3.1553841e-007  4.7817223e-002 
Zone i=62, j=1, k=2
 0.0000000e+000  1.0000000e+000  0.0000000e+000  0.0000000e+000  0.0000000e+000  0.0000000e+000  0.0000000e+000  7.4187165e-001 
 1.2291715e-002  1.0000000e+000  0.0000000e+000  0.0000000e+000  0.0000000e+000  0.0000000e+000  0.0000000e+000  7.0034909e-001 
 3.7736509e-002  1.0000000e+000  0.0000000e+000  0.0000000e+000  0.0000000e+000  0.0000000e+000  0.0000000e+000  6.1439425e-001 
 6.4963534e-002  1.0000000e+000  0.0000000e+000  0.0000000e+000  0.0000000e+000  0.0000000e+000  0.0000000e+000  4.8412469e-001 
 9.4095588e-002  1.0000000e+000  0.0000000e+000  0.0000000e+000  0.0000000e+000  0.0000000e+000  0.0000000e+000  3.6715284e-001 
 1.2526625e-001  1.0000000e+000  0.0000000e+000  0.0000000e+000  0.0000000e+000  0.0000000e+000  0.0000000e+000  2.8032163e-001 
 1.5861896e-001  1.0000000e+000  0.0000000e+000  0.0000000e+000  0.0000000e+000  0.0000000e+000  0.0000000e+000  2.2113751e-001 
 1.9430619e-001  1.0000000e+000  0.0000000e+000  0.0000000e+000  0.0000000e+000  0.0000000e+000  0.0000000e+000  1.8288785e-001 
 2.3249130e-001  1.0000000e+000  0.0000000e+000  0.0000000e+000  0.0000000e+000  0.0000000e+000  0.0000000e+000  1.5876491e-001 
 2.7334976e-001  1.0000000e+000  0.0000000e+000  0.0000000e+000  0.0000000e+000  0.0000000e+000  0.0000000e+000  1.4319520e-001 
 3.1706923e-001  1.0000000e+000  0.0000000e+000  0.0000000e+000  0.0000000e+000  0.0000000e+000  0.0000000e+000  1.3229805e-001 
 3.6384889e-001  1.0000000e+000  0.0000000e+000  0.0000000e+000  0.0000000e+000  0.0000000e+000  0.0000000e+000  1.2377524e-001 
 4.1390228e-001  1.0000000e+000  0.0000000e+000  0.0000000e+000  0.0000000e+000  0.0000000e+000  0.0000000e+000  1.1652302e-001 
 4.6745992e-001  1.0000000e+000  0.0000000e+000  0.0000000e+000  0.0000000e+000  0.0000000e+000  0.0000000e+000  1.1014030e-001 
 5.2476656e-001  1.0000000e+000  0.0000000e+000  0.0000000e+000  0.0000000e+000  0.0000000e+000  0.0000000e+000  1.0451017e-001 
 5.8608472e-001  1.0000000e+000  0.0000000e+000  0.0000000e+000  0.0000000e+000  0.0000000e+000  0.0000000e+000  9.9568248e-002 
 6.5169525e-001  1.0000000e+000  0.0000000e+000  0.0000000e+000  0.0000000e+000  0.0000000e+000  0.0000000e+000  9.5233746e-002 
 7.2189790e-001  1.0000000e+000  0.0000000e+000  0.0000000e+000  0.0000000e+000  0.0000000e+000  0.0000000e+000  9.1413319e-002 
 7.9701531e-001  1.0000000e+000  0.0000000e+000  0.0000000e+000  0.0000000e+000  0.0000000e+000  0.0000000e+000  8.8019282e-002 