Variables = "x","y", "Velocity_x", "Velocity_y", "Velocity_whole value", "Pressure", "Absolute pressure", "Total pressure"
Zone i=62, j=22
 0.0000000e+000  0.0000000e+000  0.0000000e+000  0.0000000e+000  0.0000000e+000  1.2596073e+000  1.2596073e+000  1.2596073e+000 
 1.2291715e-002  0.0000000e+000  0.0000000e+000  0.0000000e+000  0.0000000e+000  1.1946670e+000  1.1946670e+000  1.1946670e+000 
 3.7736509e-002  0.0000000e+000  0.0000000e+000  0.0000000e+000  0.0000000e+000  1.0602355e+000  1.0602355e+000  1.0602355e+000 
 6.4963534e-002  0.0000000e+000  0.0000000e+000  0.0000000e+000  0.0000000e+000  9.8016095e-001  9.8016095e-001  9.8016095e-001 
 9.4095588e-002  0.0000000e+000  0.0000000e+000  0.0000000e+000  0.0000000e+000  9.2296547e-001  9.2296547e-001  9.2296547e-001 
 1.2526625e-001  0.0000000e+000  0.0000000e+000  0.0000000e+000  0.0000000e+000  8.7282068e-001  8.7282068e-001  8.7282068e-001 
 1.5861896e-001  0.0000000e+000  0.0000000e+000  0.0000000e+000  0.0000000e+000  8.3199561e-001  8.3199561e-001  8.3199561e-001 
 1.9430619e-001  0.0000000e+000  0.0000000e+000  0.0000000e+000  0.0000000e+000  8.0202711e-001  8.0202711e-001  8.0202711e-001 
 2.3249130e-001  0.0000000e+000  0.0000000e+000  0.0000000e+000  0.0000000e+000  7.8218067e-001  7.8218067e-001  7.8218067e-001 
 2.7334976e-001  0.0000000e+000  0.0000000e+000  0.0000000e+000  0.0000000e+000  7.7064395e-001  7.7064395e-001  7.7064395e-001 
 3.1706923e-001  0.0000000e+000  0.0000000e+000  0.0000000e+000  0.0000000e+000  7.6475084e-001  7.6475084e-001  7.6475084e-001 
 3.6384889e-001  0.0000000e+000  0.0000000e+000  0.0000000e+000  0.0000000e+000  7.6166219e-001  7.6166219e-001  7.6166219e-001 
 4.1390228e-001  0.0000000e+000  0.0000000e+000  0.0000000e+000  0.0000000e+000  7.5917155e-001  7.5917155e-001  7.5917155e-001 
 4.6745992e-001  0.0000000e+000  0.0000000e+000  0.0000000e+000  0.0000000e+000  7.5604838e-001  7.5604838e-001  7.5604838e-001 
 5.2476656e-001  0.0000000e+000  0.0000000e+000  0.0000000e+000  0.0000000e+000  7.5190109e-001  7.5190109e-001  7.5190109e-001 
 5.8608472e-001  0.0000000e+000  0.0000000e+000  0.0000000e+000  0.0000000e+000  7.4682349e-001  7.4682349e-001  7.4682349e-001 
 6.5169525e-001  0.0000000e+000  0.0000000e+000  0.0000000e+000  0.0000000e+000  7.4106824e-001  7.4106824e-001  7.4106824e-001 
 7.2189790e-001  0.0000000e+000  0.0000000e+000  0.0000000e+000  0.0000000e+000  7.3485708e-001  7.3485708e-001  7.3485708e-001 
 7.9701531e-001  0.0000000e+000  0.0000000e+000  0.0000000e+000  0.0000000e+000  7.2831839e-001  7.2831839e-001  7.2831839e-001 
 8.7739104e-001  0.0000000e+000  0.0000000e+000  0.0000000e+000  0.0000000e+000  7.2150081e-001  7.2150081e-001  7.2150081e-001 
 9.6339333e-001  0.0000000e+000  0.0000000e+000  0.0000000e+000  0.0000000e+000  7.1440721e-001  7.1440721e-001  7.1440721e-001 
 1.0554160e+000  0.0000000e+000  0.0000000e+000  0.0000000e+000  0.0000000e+000  7.0702446e-001  7.0702446e-001  7.0702446e-001 
 1.1538795e+000  0.0000000e+000  0.0000000e+000  0.0000000e+000  0.0000000e+000  6.9933879e-001  6.9933879e-001  6.9933879e-001 
 1.2592361e+000  0.0000000e+000  0.0000000e+000  0.0000000e+000  0.0000000e+000  6.9134104e-001  6.9134104e-001  6.9134104e-001 
 1.3719671e+000  0.0000000e+000  0.0000000e+000  0.0000000e+000  0.0000000e+000  6.8302566e-001  6.8302566e-001  6.8302566e-001 
 1.4925885e+000  0.0000000e+000  0.0000000e+000  0.0000000e+000  0.0000000e+000  6.7438895e-001  6.7438895e-001  6.7438895e-001 
 1.6216545e+000  0.0000000e+000  0.0000000e+000  0.0000000e+000  0.0000000e+000  6.6542655e-001  6.6542655e-001  6.6542655e-001 
 1.7597550e+000  0.0000000e+000  0.0000000e+000  0.0000000e+000  0.0000000e+000  6.5613276e-001  6.5613276e-001  6.5613276e-001 
 1.9075224e+000  0.0000000e+000  0.0000000e+000  0.0000000e+000  0.0000000e+000  6.4649951e-001  6.4649951e-001  6.4649951e-001 
 2.0656340e+000  0.0000000e+000  0.0000000e+000  0.0000000e+000  0.0000000e+000  6.3651675e-001  6.3651675e-001  6.3651675e-001 
 2.2348135e+000  0.0000000e+000  0.0000000e+000  0.0000000e+000  0.0000000e+000  6.2617230e-001  6.2617230e-001  6.2617230e-001 
 2.4158354e+000  0.0000000e+000  0.0000000e+000  0.0000000e+000  0.0000000e+000  6.1545259e-001  6.1545259e-001  6.1545259e-001 
 2.6095285e+000  0.0000000e+000  0.0000000e+000  0.0000000e+000  0.0000000e+000  6.0434222e-001  6.0434222e-001  6.0434222e-001 
 2.8167806e+000  0.0000000e+000  0.0000000e+000  0.0000000e+000  0.0000000e+000  5.9282464e-001  5.9282464e-001  5.9282464e-001 
 3.0385399e+000  0.0000000e+000  0.0000000e+000  0.0000000e+000  0.0000000e+000  5.8088183e-001  5.8088183e-001  5.8088183e-001 
 3.2758224e+000  0.0000000e+000  0.0000000e+000  0.0000000e+000  0.0000000e+000  5.6849462e-001  5.6849462e-001  5.6849462e-001 
 3.5297146e+000  0.0000000e+000  0.0000000e+000  0.0000000e+000  0.0000000e+000  5.5564237e-001  5.5564237e-001  5.5564237e-001 
 3.8013785e+000  0.0000000e+000  0.0000000e+000  0.0000000e+000  0.0000000e+000  5.4230303e-001  5.4230303e-001  5.4230303e-001 
 4.0920601e+000  0.0000000e+000  0.0000000e+000  0.0000000e+000  0.0000000e+000  5.2845311e-001  5.2845311e-001  5.2845311e-001 
 4.4030900e+000  0.0000000e+000  0.0000000e+000  0.0000000e+000  0.0000000e+000  5.1406789e-001  5.1406789e-001  5.1406789e-001 
 4.7358913e+000  0.0000000e+000  0.0000000e+000  0.0000000e+000  0.0000000e+000  4.9912083e-001  4.9912083e-001  4.9912083e-001 
 5.0919890e+000  0.0000000e+000  0.0000000e+000  0.0000000e+000  0.0000000e+000  4.8358405e-001  4.8358405e-001  4.8358405e-001 
 5.4730139e+000  0.0000000e+000  0.0000000e+000  0.0000000e+000  0.0000000e+000  4.6742773e-001  4.6742773e-001  4.6742773e-001 
 5.8807087e+000  0.0000000e+000  0.0000000e+000  0.0000000e+000  0.0000000e+000  4.5062035e-001  4.5062035e-001  4.5062035e-001 
 6.3169422e+000  0.0000000e+000  0.0000000e+000  0.0000000e+000  0.0000000e+000  4.3312812e-001  4.3312812e-001  4.3312812e-001 
 6.7837143e+000  0.0000000e+000  0.0000000e+000  0.0000000e+000  0.0000000e+000  4.1491503e-001  4.1491503e-001  4.1491503e-001 
 7.2831593e+000  0.0000000e+000  0.0000000e+000  0.0000000e+000  0.0000000e+000  3.9594269e-001  3.9594269e-001  3.9594269e-001 
 7.8175659e+000  0.0000000e+000  0.0000000e+000  0.0000000e+000  0.0000000e+000  3.7616971e-001  3.7616971e-001  3.7616971e-001 
 8.3893795e+000  0.0000000e+000  0.0000000e+000  0.0000000e+000  0.0000000e+000  3.5555172e-001  3.5555172e-001  3.5555172e-001 
 9.0012217e+000  0.0000000e+000  0.0000000e+000  0.0000000e+000  0.0000000e+000  3.3403981e-001  3.3403981e-001  3.3403981e-001 
 9.6558924e+000  0.0000000e+000  0.0000000e+000  0.0000000e+000  0.0000000e+000  3.1158257e-001  3.1158257e-001  3.1158257e-001 
 1.0356388e+001  0.0000000e+000  0.0000000e+000  0.0000000e+000  0.0000000e+000  2.8811976e-001  2.8811976e-001  2.8811976e-001 
 1.1105920e+001  0.0000000e+000  0.0000000e+000  0.0000000e+000  0.0000000e+000  2.6359254e-001  2.6359254e-001  2.6359254e-001 
 1.1907920e+001  0.0000000e+000  0.0000000e+000  0.0000000e+000  0.0000000e+000  2.3792115e-001  2.3792115e-001  2.3792115e-001 
 1.2766060e+001  0.0000000e+000  0.0000000e+000  0.0000000e+000  0.0000000e+000  2.1104415e-001  2.1104415e-001  2.1104415e-001 
 1.3684270e+001  0.0000000e+000  0.0000000e+000  0.0000000e+000  0.0000000e+000  1.8284224e-001  1.8284224e-001  1.8284224e-001 
 1.4666756e+001  0.0000000e+000  0.0000000e+000  0.0000000e+000  0.0000000e+000  1.5327381e-001  1.5327381e-001  1.5327381e-001 
 1.5718015e+001  0.0000000e+000  0.0000000e+000  0.0000000e+000  0.0000000e+000  1.2213399e-001  1.2213399e-001  1.2213399e-001 
 1.6842865e+001  0.0000000e+000  0.0000000e+000  0.0000000e+000  0.0000000e+000  8.9442320e-002  8.9442320e-002  8.9442320e-002 
 1.8046452e+001  0.0000000e+000  0.0000000e+000  0.0000000e+000  0.0000000e+000  5.4910667e-002  5.4910667e-002  5.4910667e-002 
 1.9334295e+001  0.0000000e+000  0.0000000e+000  0.0000000e+000  0.0000000e+000  1.8331107e-002  1.8331107e-002  1.8331107e-002 
 2.0000000e+001  0.0000000e+000  0.0000000e+000  0.0000000e+000  0.0000000e+000 -5.7737430e-004 -5.7737430e-004 -5.7737430e-004 
 0.0000000e+000  1.5686335e-002  1.0000000e+000  0.0000000e+000  1.0000000e+000  1.1807263e+000  1.1807263e+000  1.6807263e+000 
 1.2291715e-002  1.5686335e-002  9.7449476e-001  8.6937964e-002  9.7836506e-001  1.1322440e+000  1.1322440e+000  1.6108431e+000 
 3.7736509e-002  1.5686335e-002  9.0415561e-001  1.1876430e-001  9.1192234e-001  1.0318818e+000  1.0318818e+000  1.4476830e+000 
 6.4963534e-002  1.5686335e-002  8.0413741e-001  1.0806789e-001  8.1136650e-001  9.6609765e-001  9.6609765e-001  1.2952554e+000 
 9.4095588e-002  1.5686335e-002  6.9562292e-001  8.6269222e-002  7.0095193e-001  9.1558659e-001  9.1558659e-001  1.1612535e+000 
 1.2526625e-001  1.5686335e-002  5.9333879e-001  6.1859239e-002  5.9655470e-001  8.7051851e-001  8.7051851e-001  1.0484573e+000 
 1.5861896e-001  1.5686335e-002  5.0279009e-001  3.9303053e-002  5.0432390e-001  8.3315355e-001  8.3315355e-001  9.6032482e-001 
 1.9430619e-001  1.5686335e-002  4.2729691e-001  2.1453096e-002  4.2783511e-001  8.0514443e-001  8.0514443e-001  8.9666587e-001 
 2.3249130e-001  1.5686335e-002  3.6838442e-001  9.0967817e-003  3.6849672e-001  7.8610897e-001  7.8610897e-001  8.5400391e-001 
 2.7334976e-001  1.5686335e-002  3.2504278e-001  1.7411249e-003  3.2504743e-001  7.7452660e-001  7.7452660e-001  8.2735449e-001 
 3.1706923e-001  1.5686335e-002  2.9447499e-001 -1.7495124e-003  2.9448017e-001  7.6806974e-001  7.6806974e-001  8.1142902e-001 
 3.6384889e-001  1.5686335e-002  2.7318048e-001 -2.7368013e-003  2.7319419e-001  7.6423448e-001  7.6423448e-001  8.0155200e-001 
 4.1390228e-001  1.5686335e-002  2.5780955e-001 -2.4387275e-003  2.5782108e-001  7.6104802e-001  7.6104802e-001  7.9428387e-001 
 4.6745992e-001  1.5686335e-002  2.4574432e-001 -1.7116141e-003  2.4575028e-001  7.5738484e-001  7.5738484e-001  7.8758144e-001 
 5.2476656e-001  1.5686335e-002  2.3532856e-001 -1.0194668e-003  2.3533076e-001  7.5286198e-001  7.5286198e-001  7.8055227e-001 
 5.8608472e-001  1.5686335e-002  2.2575711e-001 -5.2776909e-004  2.2575772e-001  7.4753636e-001  7.4753636e-001  7.7301961e-001 
 6.5169525e-001  1.5686335e-002  2.1677953e-001 -2.3542382e-004  2.1677966e-001  7.4161643e-001  7.4161643e-001  7.6511312e-001 
 7.2189790e-001  1.5686335e-002  2.0839612e-001 -8.1425693e-005  2.0839614e-001  7.3529059e-001  7.3529059e-001  7.5700504e-001 
 7.9701531e-001  1.5686335e-002  2.0065357e-001 -5.4673960e-006  2.0065357e-001  7.2866744e-001  7.2866744e-001  7.4879837e-001 
 8.7739104e-001  1.5686335e-002  1.9355895e-001  3.2350723e-005  1.9355895e-001  7.2178513e-001  7.2178513e-001  7.4051768e-001 
 9.6339333e-001  1.5686335e-002  1.8706995e-001  5.2852163e-005  1.8706997e-001  7.1464121e-001  7.1464121e-001  7.3213881e-001 
 1.0554160e+000  1.5686335e-002  1.8111584e-001  6.5072716e-005  1.8111585e-001  7.0721889e-001  7.0721889e-001  7.2362036e-001 
 1.1538795e+000  1.5686335e-002  1.7562094e-001  7.2281284e-005  1.7562096e-001  6.9950211e-001  6.9950211e-001  7.1492344e-001 
 1.2592361e+000  1.5686335e-002  1.7051795e-001  7.5650139e-005  1.7051797e-001  6.9147956e-001  6.9147956e-001  7.0601773e-001 
 1.3719671e+000  1.5686335e-002  1.6575325e-001  7.6305056e-005  1.6575326e-001  6.8314415e-001  6.8314415e-001  6.9688123e-001 
 1.4925885e+000  1.5686335e-002  1.6128546e-001  7.4876429e-005  1.6128547e-001  6.7449093e-001  6.7449093e-001  6.8749744e-001 
 1.6216545e+000  1.5686335e-002  1.5708324e-001  7.1932031e-005  1.5708326e-001  6.6551483e-001  6.6551483e-001  6.7785239e-001 
 1.7597550e+000  1.5686335e-002  1.5312201e-001  6.8047615e-005  1.5312202e-001  6.5620947e-001  6.5620947e-001  6.6793263e-001 
 1.9075224e+000  1.5686335e-002  1.4938158e-001  6.3679996e-005  1.4938159e-001  6.4656639e-001  6.4656639e-001  6.5772384e-001 
 2.0656340e+000  1.5686335e-002  1.4584489e-001  5.9037200e-005  1.4584491e-001  6.3657522e-001  6.3657522e-001  6.4721060e-001 
 2.2348135e+000  1.5686335e-002  1.4249687e-001  5.4329397e-005  1.4249688e-001  6.2622356e-001  6.2622356e-001  6.3637626e-001 
 2.4158354e+000  1.5686335e-002  1.3932434e-001  4.9692222e-005  1.3932435e-001  6.1549759e-001  6.1549759e-001  6.2520325e-001 
 2.6095285e+000  1.5686335e-002  1.3631563e-001  4.5387304e-005  1.3631564e-001  6.0438180e-001  6.0438180e-001  6.1367279e-001 
 2.8167806e+000  1.5686335e-002  1.3346031e-001  4.1344425e-005  1.3346031e-001  5.9285951e-001  5.9285951e-001  6.0176533e-001 
 3.0385399e+000  1.5686335e-002  1.3074902e-001  3.7494556e-005  1.3074902e-001  5.8091265e-001  5.8091265e-001  5.8946031e-001 
 3.2758224e+000  1.5686335e-002  1.2817331e-001  3.3937435e-005  1.2817331e-001  5.6852180e-001  5.6852180e-001  5.7673597e-001 
 3.5297146e+000  1.5686335e-002  1.2572563e-001  3.0840030e-005  1.2572563e-001  5.5566639e-001  5.5566639e-001  5.6356984e-001 
 3.8013785e+000  1.5686335e-002  1.2339898e-001  2.7827100e-005  1.2339898e-001  5.4232424e-001  5.4232424e-001  5.4993790e-001 
 4.0920601e+000  1.5686335e-002  1.2118702e-001  2.5134394e-005  1.2118702e-001  5.2847189e-001  5.2847189e-001  5.3581506e-001 
 4.4030900e+000  1.5686335e-002  1.1908378e-001  2.2528637e-005  1.1908378e-001  5.1408446e-001  5.1408446e-001  5.2117491e-001 
 4.7358913e+000  1.5686335e-002  1.1708413e-001  2.0300662e-005  1.1708413e-001  4.9913549e-001  4.9913549e-001  5.0598985e-001 
 5.0919890e+000  1.5686335e-002  1.1518320e-001  1.8246234e-005  1.1518320e-001  4.8359704e-001  4.8359704e-001  4.9023062e-001 
 5.4730139e+000  1.5686335e-002  1.1337664e-001  1.6351467e-005  1.1337664e-001  4.6743923e-001  4.6743923e-001  4.7386637e-001 
 5.8807087e+000  1.5686335e-002  1.1166025e-001  1.4680051e-005  1.1166025e-001  4.5063052e-001  4.5063052e-001  4.5686454e-001 
 6.3169422e+000  1.5686335e-002  1.1003059e-001  1.3242758e-005  1.1003059e-001  4.3313712e-001  4.3313712e-001  4.3919048e-001 
 6.7837143e+000  1.5686335e-002  1.0848436e-001  1.1711650e-005  1.0848436e-001  4.1492298e-001  4.1492298e-001  4.2080742e-001 
 7.2831593e+000  1.5686335e-002  1.0701890e-001  1.0541377e-005  1.0701890e-001  3.9594975e-001  3.9594975e-001  4.0167627e-001 
 7.8175659e+000  1.5686335e-002  1.0563153e-001  9.3838853e-006  1.0563153e-001  3.7617591e-001  3.7617591e-001  3.8175493e-001 
 8.3893795e+000  1.5686335e-002  1.0432052e-001  8.3082559e-006  1.0432052e-001  3.5555717e-001  3.5555717e-001  3.6099857e-001 
 9.0012217e+000  1.5686335e-002  1.0308394e-001  7.4564900e-006  1.0308394e-001  3.3404458e-001  3.3404458e-001  3.3935773e-001 
 9.6558924e+000  1.5686335e-002  1.0192136e-001  6.5416239e-006  1.0192136e-001  3.1158677e-001  3.1158677e-001  3.1678075e-001 
 1.0356388e+001  1.5686335e-002  1.0083043e-001  5.7374755e-006  1.0083043e-001  2.8812343e-001  2.8812343e-001  2.9320681e-001 
 1.1105920e+001  1.5686335e-002  9.9813171e-002  5.0096146e-006  9.9813171e-002  2.6359573e-001  2.6359573e-001  2.6857707e-001 
 1.1907920e+001  1.5686335e-002  9.8864809e-002  4.3925111e-006  9.8864809e-002  2.3792391e-001  2.3792391e-001  2.4281102e-001 
 1.2766060e+001  1.5686335e-002  9.7993016e-002  3.7333753e-006  9.7993016e-002  2.1104653e-001  2.1104653e-001  2.1584785e-001 
 1.3684270e+001  1.5686335e-002  9.7184747e-002  3.3557451e-006  9.7184747e-002  1.8284428e-001  1.8284428e-001  1.8756671e-001 
 1.4666756e+001  1.5686335e-002  9.6459024e-002  2.6993494e-006  9.6459024e-002  1.5327552e-001  1.5327552e-001  1.5792769e-001 
 1.5718015e+001  1.5686335e-002  9.5792130e-002  2.4860765e-006  9.5792130e-002  1.2213546e-001  1.2213546e-001  1.2672353e-001 
 1.6842865e+001  1.5686335e-002  9.5190726e-002  1.7987511e-006  9.5190726e-002  8.9443482e-002  8.9443482e-002  9.3974121e-002 
 1.8046452e+001  1.5686335e-002  9.4734438e-002  1.6948298e-006  9.4734438e-002  5.4911800e-002  5.4911800e-002  5.9399106e-002 
 1.9334295e+001  1.5686335e-002  9.4043441e-002  9.3739538e-007  9.4043441e-002  1.8331723e-002  1.8331723e-002  2.2753807e-002 
 2.0000000e+001  1.5686335e-002  9.4043441e-002  9.2714441e-007  9.4043441e-002  0.0000000e+000  0.0000000e+000  4.4220844e-003 
 0.0000000e+000  4.8627645e-002  1.0000000e+000  0.0000000e+000  1.0000000e+000  1.0150762e+000  1.0150762e+000  1.5150762e+000 
 1.2291715e-002  4.8627645e-002  1.0166934e+000  4.1403435e-002  1.0175360e+000  1.0011556e+000  1.0011556e+000  1.5188454e+000 
 3.7736509e-002  4.8627645e-002  1.0506148e+000  9.2677712e-002  1.0546947e+000  9.7233897e-001  9.7233897e-001  1.5285293e+000 
 6.4963534e-002  4.8627645e-002  1.0752650e+000  1.2019618e-001  1.0819621e+000  9.3656468e-001  9.3656468e-001  1.5218858e+000 
 9.4095588e-002  4.8627645e-002  1.0829793e+000  1.3122359e-001  1.0909004e+000  9.0009099e-001  9.0009099e-001  1.4951229e+000 
 1.2526625e-001  4.8627645e-002  1.0729741e+000  1.2853463e-001  1.0806454e+000  8.6568379e-001  8.6568379e-001  1.4495810e+000 
 1.5861896e-001  4.8627645e-002  1.0473833e+000  1.1556289e-001  1.0537393e+000  8.3558506e-001  8.3558506e-001  1.3907683e+000 
 1.9430619e-001  4.8627645e-002  1.0096561e+000  9.6655555e-002  1.0142720e+000  8.1169081e-001  8.1169081e-001  1.3260647e+000 
 2.3249130e-001  4.8627645e-002  9.6405625e-001  7.5880535e-002  9.6703792e-001  7.9435837e-001  7.9435837e-001  1.2619395e+000 
 2.7334976e-001  4.8627645e-002  9.1477126e-001  5.6488235e-002  9.1651368e-001  7.8268009e-001  7.8268009e-001  1.2026788e+000 
 3.1706923e-001  4.8627645e-002  8.6525619e-001  4.0559292e-002  8.6620629e-001  7.7503943e-001  7.7503943e-001  1.1501961e+000 
 3.6384889e-001  4.8627645e-002  8.1797087e-001  2.8840169e-002  8.1847912e-001  7.6963633e-001  7.6963633e-001  1.1045904e+000 
 4.1390228e-001  4.8627645e-002  7.7434182e-001  2.0965552e-002  7.7462560e-001  7.6498866e-001  7.6498866e-001  1.0650110e+000 
 4.6745992e-001  4.8627645e-002  7.3490667e-001  1.5962852e-002  7.3508000e-001  7.6019126e-001  7.6019126e-001  1.0303626e+000 
 5.2476656e-001  4.8627645e-002  6.9958806e-001  1.2772305e-002  6.9970465e-001  7.5487977e-001  7.5487977e-001  9.9967307e-001 
 5.8608472e-001  4.8627645e-002  6.6799158e-001  1.0576672e-002  6.6807532e-001  7.4903327e-001  7.4903327e-001  9.7219557e-001 
 6.5169525e-001  4.8627645e-002  6.3963759e-001  8.8923741e-003  6.3969940e-001  7.4276745e-001  7.4276745e-001  9.4737512e-001 
 7.2189790e-001  4.8627645e-002  6.1408436e-001  7.4994559e-003  6.1413014e-001  7.3620081e-001  7.3620081e-001  9.2477876e-001 
 7.9701531e-001  4.8627645e-002  5.9096044e-001  6.3232351e-003  5.9099430e-001  7.2940028e-001  7.2940028e-001  9.0403742e-001 
 8.7739104e-001  4.8627645e-002  5.6995320e-001  5.3408719e-003  5.6997824e-001  7.2238225e-001  7.2238225e-001  8.8481987e-001 
 9.6339333e-001  4.8627645e-002  5.5078804e-001  4.5344238e-003  5.5080670e-001  7.1513247e-001  7.1513247e-001  8.6682647e-001 
 1.0554160e+000  4.8627645e-002  5.3321850e-001  3.8790393e-003  5.3323263e-001  7.0762724e-001  7.0762724e-001  8.4979576e-001 
 1.1538795e+000  4.8627645e-002  5.1702660e-001  3.3454176e-003  5.1703745e-001  6.9984514e-001  6.9984514e-001  8.3350897e-001 
 1.2592361e+000  4.8627645e-002  5.0202560e-001  2.9060992e-003  5.0203401e-001  6.9177049e-001  6.9177049e-001  8.1778955e-001 
 1.3719671e+000  4.8627645e-002  4.8806140e-001  2.5390319e-003  4.8806801e-001  6.8339294e-001  6.8339294e-001  8.0249810e-001 
 1.4925885e+000  4.8627645e-002  4.7500941e-001  2.2275192e-003  4.7501463e-001  6.7470509e-001  6.7470509e-001  7.8752452e-001 
 1.6216545e+000  4.8627645e-002  4.6276969e-001  1.9598859e-003  4.6277383e-001  6.6570020e-001  6.6570020e-001  7.7278000e-001 
 1.7597550e+000  4.8627645e-002  4.5126152e-001  1.7280245e-003  4.5126483e-001  6.5637058e-001  6.5637058e-001  7.5819057e-001 
 1.9075224e+000  4.8627645e-002  4.4041780e-001  1.5260448e-003  4.4042045e-001  6.4670688e-001  6.4670688e-001  7.4369198e-001 
 2.0656340e+000  4.8627645e-002  4.3018213e-001  1.3494309e-003  4.3018425e-001  6.3669807e-001  6.3669807e-001  7.2922730e-001 
 2.2348135e+000  4.8627645e-002  4.2050612e-001  1.1947550e-003  4.2050782e-001  6.2633121e-001  6.2633121e-001  7.1474463e-001 
 2.4158354e+000  4.8627645e-002  4.1134796e-001  1.0588154e-003  4.1134933e-001  6.1559206e-001  6.1559206e-001  7.0019621e-001 
 2.6095285e+000  4.8627645e-002  4.0267128e-001  9.3903678e-004  4.0267238e-001  6.0446495e-001  6.0446495e-001  6.8553746e-001 
 2.8167806e+000  4.8627645e-002  3.9444402e-001  8.3330303e-004  3.9444491e-001  5.9293276e-001  5.9293276e-001  6.7072612e-001 
 3.0385399e+000  4.8627645e-002  3.8663790e-001  7.3985965e-004  3.8663861e-001  5.8097732e-001  5.8097732e-001  6.5572202e-001 
 3.2758224e+000  4.8627645e-002  3.7922740e-001  6.5717363e-004  3.7922797e-001  5.6857884e-001  5.6857884e-001  6.4048576e-001 
 3.5297146e+000  4.8627645e-002  3.7218961e-001  5.8387726e-004  3.7219006e-001  5.5571681e-001  5.5571681e-001  6.2497956e-001 
 3.8013785e+000  4.8627645e-002  3.6550403e-001  5.1889452e-004  3.6550438e-001  5.4236883e-001  5.4236883e-001  6.0916555e-001 
 4.0920601e+000  4.8627645e-002  3.5915154e-001  4.6128989e-004  3.5915184e-001  5.2851135e-001  5.2851135e-001  5.9300637e-001 
 4.4030900e+000  4.8627645e-002  3.5311517e-001  4.0996954e-004  3.5311541e-001  5.1411933e-001  5.1411933e-001  5.7646459e-001 
 4.7358913e+000  4.8627645e-002  3.4737951e-001  3.6439017e-004  3.4737968e-001  4.9916634e-001  4.9916634e-001  5.5950266e-001 
 5.0919890e+000  4.8627645e-002  3.4193006e-001  3.2380238e-004  3.4193021e-001  4.8362437e-001  4.8362437e-001  5.4208249e-001 
 5.4730139e+000  4.8627645e-002  3.3675429e-001  2.8761616e-004  3.3675441e-001  4.6746340e-001  4.6746340e-001  5.2416515e-001 
 5.8807087e+000  4.8627645e-002  3.3184007e-001  2.5540034e-004  3.3184016e-001  4.5065188e-001  4.5065188e-001  5.0571084e-001 
 6.3169422e+000  4.8627645e-002  3.2717726e-001  2.2651078e-004  3.2717735e-001  4.3315604e-001  4.3315604e-001  4.8667854e-001 
 6.7837143e+000  4.8627645e-002  3.2275626e-001  2.0088976e-004  3.2275632e-001  4.1493967e-001  4.1493967e-001  4.6702549e-001 
 7.2831593e+000  4.8627645e-002  3.1856924e-001  1.7779364e-004  3.1856930e-001  3.9596456e-001  3.9596456e-001  4.4670776e-001 
 7.8175659e+000  4.8627645e-002  3.1460851e-001  1.5722905e-004  3.1460854e-001  3.7618893e-001  3.7618893e-001  4.2567819e-001 
 8.3893795e+000  4.8627645e-002  3.1086877e-001  1.3873979e-004  3.1086880e-001  3.5556862e-001  3.5556862e-001  4.0388831e-001 
 9.0012217e+000  4.8627645e-002  3.0734441e-001  1.2215685e-004  3.0734444e-001  3.3405462e-001  3.3405462e-001  3.8128492e-001 
 9.6558924e+000  4.8627645e-002  3.0403355e-001  1.0719828e-004  3.0403358e-001  3.1159559e-001  3.1159559e-001  3.5781381e-001 
 1.0356388e+001  4.8627645e-002  3.0092978e-001  9.3812043e-005  3.0092978e-001  2.8813112e-001  2.8813112e-001  3.3341050e-001 
 1.1105920e+001  4.8627645e-002  2.9803783e-001  8.1669234e-005  2.9803783e-001  2.6360241e-001  2.6360241e-001  3.0801567e-001 
 1.1907920e+001  4.8627645e-002  2.9534501e-001  7.0852904e-005  2.9534501e-001  2.3792969e-001  2.3792969e-001  2.8154403e-001 
 1.2766060e+001  4.8627645e-002  2.9287046e-001  6.0894454e-005  2.9287046e-001  2.1105151e-001  2.1105151e-001  2.5393808e-001 
 1.3684270e+001  4.8627645e-002  2.9058036e-001  5.2307998e-005  2.9058036e-001  1.8284854e-001  1.8284854e-001  2.2506702e-001 
 1.4666756e+001  4.8627645e-002  2.8852278e-001  4.3892036e-005  2.8852278e-001  1.5327910e-001  1.5327910e-001  1.9490179e-001 
 1.5718015e+001  4.8627645e-002  2.8663740e-001  3.7955077e-005  2.8663740e-001  1.2213852e-001  1.2213852e-001  1.6321902e-001 
 1.6842865e+001  4.8627645e-002  2.8493625e-001  2.9284847e-005  2.8493625e-001  8.9445889e-002  8.9445889e-002  1.3004023e-001 
 1.8046452e+001  4.8627645e-002  2.8363925e-001  2.8776356e-005  2.8363925e-001  5.4914154e-002  5.4914154e-002  9.5139764e-002 
 1.9334295e+001  4.8627645e-002  2.8169802e-001  1.7917311e-005  2.8169802e-001  1.8333009e-002  1.8333009e-002  5.8009896e-002 
 2.0000000e+001  4.8627645e-002  2.8169799e-001  1.7926961e-005  2.8169799e-001  0.0000000e+000  0.0000000e+000  3.9676879e-002 
 0.0000000e+000  8.4863111e-002  1.0000000e+000  0.0000000e+000  1.0000000e+000  9.4862515e-001  9.4862515e-001  1.4486251e+000 
 1.2291715e-002  8.4863111e-002  1.0028183e+000  1.6621331e-002  1.0029560e+000  9.4501859e-001  9.4501859e-001  1.4479791e+000 
 3.7736509e-002  8.4863111e-002  1.0155852e+000  4.5980584e-002  1.0166255e+000  9.3755269e-001  9.3755269e-001  1.4543164e+000 
 6.4963534e-002  8.4863111e-002  1.0400728e+000  6.9921933e-002  1.0424205e+000  9.1691548e-001  9.1691548e-001  1.4602357e+000 
 9.4095588e-002  8.4863111e-002  1.0686449e+000  8.7574184e-002  1.0722271e+000  8.9133197e-001  8.9133197e-001  1.4661676e+000 
 1.2526625e-001  8.4863111e-002  1.0950593e+000  9.7996846e-002  1.0994354e+000  8.6617500e-001  8.6617500e-001  1.4705541e+000 
 1.5861896e-001  8.4863111e-002  1.1158477e+000  1.0105955e-001  1.1204147e+000  8.4242463e-001  8.4242463e-001  1.4700892e+000 
 1.9430619e-001  8.4863111e-002  1.1286151e+000  9.7903468e-002  1.1328536e+000  8.2125360e-001  8.2125360e-001  1.4629322e+000 
 2.3249130e-001  8.4863111e-002  1.1322602e+000  9.0373307e-002  1.1358612e+000  8.0379432e-001  8.0379432e-001  1.4488846e+000 
 2.7334976e-001  8.4863111e-002  1.1271220e+000  8.0465540e-002  1.1299906e+000  7.9034901e-001  7.9034901e-001  1.4287884e+000 
 3.1706923e-001  8.4863111e-002  1.1145481e+000  6.9922619e-002  1.1167393e+000  7.8044468e-001  7.8044468e-001  1.4039980e+000 
 3.6384889e-001  8.4863111e-002  1.0963479e+000  5.9945732e-002  1.0979855e+000  7.7309549e-001  7.7309549e-001  1.3758817e+000 
 4.1390228e-001  8.4863111e-002  1.0743245e+000  5.1132504e-002  1.0755407e+000  7.6715642e-001  7.6715642e-001  1.3455503e+000 
 4.6745992e-001  8.4863111e-002  1.0499614e+000  4.3615084e-002  1.0508670e+000  7.6167452e-001  7.6167452e-001  1.3138351e+000 
 5.2476656e-001  8.4863111e-002  1.0243218e+000  3.7268978e-002  1.0249996e+000  7.5606769e-001  7.5606769e-001  1.2813797e+000 
 5.8608472e-001  8.4863111e-002  9.9810421e-001  3.1888254e-002  9.9861348e-001  7.5010210e-001  7.5010210e-001  1.2487166e+000 
 6.5169525e-001  8.4863111e-002  9.7176850e-001  2.7287370e-002  9.7215152e-001  7.4376017e-001  7.4376017e-001  1.2162995e+000 
 7.2189790e-001  8.4863111e-002  9.4564873e-001  2.3335183e-002  9.4593662e-001  7.3710537e-001  7.3710537e-001  1.1845034e+000 
 7.9701531e-001  8.4863111e-002  9.2001516e-001  1.9946285e-002  9.2023134e-001  7.3019749e-001  7.3019749e-001  1.1536103e+000 
 8.7739104e-001  8.4863111e-002  8.9509481e-001  1.7059283e-002  8.9525735e-001  7.2306371e-001  7.2306371e-001  1.1238066e+000 
 9.6339333e-001  8.4863111e-002  8.7106574e-001  1.4618714e-002  8.7118840e-001  7.1570241e-001  7.1570241e-001  1.0951871e+000 
 1.0554160e+000  8.4863111e-002  8.4804910e-001  1.2567626e-002  8.4814221e-001  7.0809793e-001  7.0809793e-001  1.0677706e+000 
 1.1538795e+000  8.4863111e-002  8.2610857e-001  1.0847931e-002  8.2617980e-001  7.0023197e-001  7.0023197e-001  1.0415184e+000 
 1.2592361e+000  8.4863111e-002  8.0525768e-001  9.4035799e-003  8.0531257e-001  6.9208866e-001  6.9208866e-001  1.0163529e+000 
 1.3719671e+000  8.4863111e-002  7.8547359e-001  8.1849853e-003  7.8551620e-001  6.8365610e-001  6.8365610e-001  9.9217397e-001 
 1.4925885e+000  8.4863111e-002  7.6671022e-001  7.1505080e-003  7.6674354e-001  6.7492431e-001  6.7492431e-001  9.6887219e-001 
 1.6216545e+000  8.4863111e-002  7.4890971e-001  6.2663574e-003  7.4893594e-001  6.6588420e-001  6.6588420e-001  9.4633669e-001 
 1.7597550e+000  8.4863111e-002  7.3201245e-001  5.5061402e-003  7.3203313e-001  6.5652627e-001  6.5652627e-001  9.2446256e-001 
 1.9075224e+000  8.4863111e-002  7.1596038e-001  4.8489287e-003  7.1597677e-001  6.4683956e-001  6.4683956e-001  9.0315098e-001 
 2.0656340e+000  8.4863111e-002  7.0070076e-001  4.2778519e-003  7.0071381e-001  6.3681179e-001  6.3681179e-001  8.8231170e-001 
 2.2348135e+000  8.4863111e-002  6.8618584e-001  3.7798493e-003  6.8619627e-001  6.2642914e-001  6.2642914e-001  8.6186177e-001 
 2.4158354e+000  8.4863111e-002  6.7237282e-001  3.3439952e-003  6.7238116e-001  6.1567670e-001  6.1567670e-001  8.4172487e-001 
 2.6095285e+000  8.4863111e-002  6.5922350e-001  2.9612873e-003  6.5923017e-001  6.0453838e-001  6.0453838e-001  8.2183057e-001 
 2.8167806e+000  8.4863111e-002  6.4670295e-001  2.6245615e-003  6.4670825e-001  5.9299660e-001  5.9299660e-001  8.0211240e-001 
 3.0385399e+000  8.4863111e-002  6.3477939e-001  2.3275500e-003  6.3478369e-001  5.8103299e-001  5.8103299e-001  7.8250813e-001 
 3.2758224e+000  8.4863111e-002  6.2342387e-001  2.0652956e-003  6.2342727e-001  5.6862748e-001  5.6862748e-001  7.6295829e-001 
 3.5297146e+000  8.4863111e-002  6.1260867e-001  1.8330701e-003  6.1261141e-001  5.5575943e-001  5.5575943e-001  7.4340582e-001 
 3.8013785e+000  8.4863111e-002  6.0230929e-001  1.6275148e-003  6.0231149e-001  5.4240620e-001  5.4240620e-001  7.2379577e-001 
 4.0920601e+000  8.4863111e-002  5.9250224e-001  1.4452903e-003  5.9250402e-001  5.2854407e-001  5.2854407e-001  7.0407456e-001 
 4.4030900e+000  8.4863111e-002  5.8316612e-001  1.2835215e-003  5.8316755e-001  5.1414812e-001  5.1414812e-001  6.8419027e-001 
 4.7358913e+000  8.4863111e-002  5.7428122e-001  1.1397279e-003  5.7428235e-001  4.9919167e-001  4.9919167e-001  6.6409177e-001 
 5.0919890e+000  8.4863111e-002  5.6582892e-001  1.0118225e-003  5.6582981e-001  4.8364660e-001  4.8364660e-001  6.4372832e-001 
 5.4730139e+000  8.4863111e-002  5.5779243e-001  8.9805439e-004  5.5779314e-001  4.6748298e-001  4.6748298e-001  6.2304956e-001 
 5.8807087e+000  8.4863111e-002  5.5015582e-001  7.9664512e-004  5.5015641e-001  4.5066911e-001  4.5066911e-001  6.0200512e-001 
 6.3169422e+000  8.4863111e-002  5.4290551e-001  7.0620258e-004  5.4290599e-001  4.3317121e-001  4.3317121e-001  5.8054465e-001 