Variables = "x","y", "Velocity_x", "Velocity_y", "Velocity_whole value", "Pressure", "Absolute pressure", "Total pressure"
Zone i=62, j=22
 0.0000000e+000  0.0000000e+000  0.0000000e+000  0.0000000e+000  0.0000000e+000  4.1704803e+000  4.1704803e+000  4.1704803e+000 
 1.2291715e-002  0.0000000e+000  0.0000000e+000  0.0000000e+000  0.0000000e+000  3.9107563e+000  3.9107563e+000  3.9107563e+000 
 3.7736509e-002  0.0000000e+000  0.0000000e+000  0.0000000e+000  0.0000000e+000  3.3731084e+000  3.3731084e+000  3.3731084e+000 
 6.4963534e-002  0.0000000e+000  0.0000000e+000  0.0000000e+000  0.0000000e+000  3.0240467e+000  3.0240467e+000  3.0240467e+000 
 9.4095588e-002  0.0000000e+000  0.0000000e+000  0.0000000e+000  0.0000000e+000  2.8142052e+000  2.8142052e+000  2.8142052e+000 
 1.2526625e-001  0.0000000e+000  0.0000000e+000  0.0000000e+000  0.0000000e+000  2.6942713e+000  2.6942713e+000  2.6942713e+000 
 1.5861896e-001  0.0000000e+000  0.0000000e+000  0.0000000e+000  0.0000000e+000  2.6303649e+000  2.6303649e+000  2.6303649e+000 
 1.9430619e-001  0.0000000e+000  0.0000000e+000  0.0000000e+000  0.0000000e+000  2.5964906e+000  2.5964906e+000  2.5964906e+000 
 2.3249130e-001  0.0000000e+000  0.0000000e+000  0.0000000e+000  0.0000000e+000  2.5756862e+000  2.5756862e+000  2.5756862e+000 
 2.7334976e-001  0.0000000e+000  0.0000000e+000  0.0000000e+000  0.0000000e+000  2.5595248e+000  2.5595248e+000  2.5595248e+000 
 3.1706923e-001  0.0000000e+000  0.0000000e+000  0.0000000e+000  0.0000000e+000  2.5447092e+000  2.5447092e+000  2.5447092e+000 
 3.6384889e-001  0.0000000e+000  0.0000000e+000  0.0000000e+000  0.0000000e+000  2.5302734e+000  2.5302734e+000  2.5302734e+000 
 4.1390228e-001  0.0000000e+000  0.0000000e+000  0.0000000e+000  0.0000000e+000  2.5159996e+000  2.5159996e+000  2.5159996e+000 
 4.6745992e-001  0.0000000e+000  0.0000000e+000  0.0000000e+000  0.0000000e+000  2.5017347e+000  2.5017347e+000  2.5017347e+000 
 5.2476656e-001  0.0000000e+000  0.0000000e+000  0.0000000e+000  0.0000000e+000  2.4873333e+000  2.4873333e+000  2.4873333e+000 
 5.8608472e-001  0.0000000e+000  0.0000000e+000  0.0000000e+000  0.0000000e+000  2.4726586e+000  2.4726586e+000  2.4726586e+000 
 6.5169525e-001  0.0000000e+000  0.0000000e+000  0.0000000e+000  0.0000000e+000  2.4575875e+000  2.4575875e+000  2.4575875e+000 
 7.2189790e-001  0.0000000e+000  0.0000000e+000  0.0000000e+000  0.0000000e+000  2.4420006e+000  2.4420006e+000  2.4420006e+000 
 7.9701531e-001  0.0000000e+000  0.0000000e+000  0.0000000e+000  0.0000000e+000  2.4258156e+000  2.4258156e+000  2.4258156e+000 
 8.7739104e-001  0.0000000e+000  0.0000000e+000  0.0000000e+000  0.0000000e+000  2.4089630e+000  2.4089630e+000  2.4089630e+000 
 9.6339333e-001  0.0000000e+000  0.0000000e+000  0.0000000e+000  0.0000000e+000  2.3913939e+000  2.3913939e+000  2.3913939e+000 
 1.0554160e+000  0.0000000e+000  0.0000000e+000  0.0000000e+000  0.0000000e+000  2.3730695e+000  2.3730695e+000  2.3730695e+000 
 1.1538795e+000  0.0000000e+000  0.0000000e+000  0.0000000e+000  0.0000000e+000  2.3539550e+000  2.3539550e+000  2.3539550e+000 
 1.2592361e+000  0.0000000e+000  0.0000000e+000  0.0000000e+000  0.0000000e+000  2.3340399e+000  2.3340399e+000  2.3340399e+000 
 1.3719671e+000  0.0000000e+000  0.0000000e+000  0.0000000e+000  0.0000000e+000  2.3133030e+000  2.3133030e+000  2.3133030e+000 
 1.4925885e+000  0.0000000e+000  0.0000000e+000  0.0000000e+000  0.0000000e+000  2.2917218e+000  2.2917218e+000  2.2917218e+000 
 1.6216545e+000  0.0000000e+000  0.0000000e+000  0.0000000e+000  0.0000000e+000  2.2692726e+000  2.2692726e+000  2.2692726e+000 
 1.7597550e+000  0.0000000e+000  0.0000000e+000  0.0000000e+000  0.0000000e+000  2.2459247e+000  2.2459247e+000  2.2459247e+000 
 1.9075224e+000  0.0000000e+000  0.0000000e+000  0.0000000e+000  0.0000000e+000  2.2216408e+000  2.2216408e+000  2.2216408e+000 
 2.0656340e+000  0.0000000e+000  0.0000000e+000  0.0000000e+000  0.0000000e+000  2.1963778e+000  2.1963778e+000  2.1963778e+000 
 2.2348135e+000  0.0000000e+000  0.0000000e+000  0.0000000e+000  0.0000000e+000  2.1700828e+000  2.1700828e+000  2.1700828e+000 
 2.4158354e+000  0.0000000e+000  0.0000000e+000  0.0000000e+000  0.0000000e+000  2.1426959e+000  2.1426959e+000  2.1426959e+000 
 2.6095285e+000  0.0000000e+000  0.0000000e+000  0.0000000e+000  0.0000000e+000  2.1141460e+000  2.1141460e+000  2.1141460e+000 
 2.8167806e+000  0.0000000e+000  0.0000000e+000  0.0000000e+000  0.0000000e+000  2.0843532e+000  2.0843532e+000  2.0843532e+000 
 3.0385399e+000  0.0000000e+000  0.0000000e+000  0.0000000e+000  0.0000000e+000  2.0532224e+000  2.0532224e+000  2.0532224e+000 
 3.2758224e+000  0.0000000e+000  0.0000000e+000  0.0000000e+000  0.0000000e+000  2.0206490e+000  2.0206490e+000  2.0206490e+000 
 3.5297146e+000  0.0000000e+000  0.0000000e+000  0.0000000e+000  0.0000000e+000  1.9865105e+000  1.9865105e+000  1.9865105e+000 
 3.8013785e+000  0.0000000e+000  0.0000000e+000  0.0000000e+000  0.0000000e+000  1.9506682e+000  1.9506682e+000  1.9506682e+000 
 4.0920601e+000  0.0000000e+000  0.0000000e+000  0.0000000e+000  0.0000000e+000  1.9129691e+000  1.9129691e+000  1.9129691e+000 
 4.4030900e+000  0.0000000e+000  0.0000000e+000  0.0000000e+000  0.0000000e+000  1.8732412e+000  1.8732412e+000  1.8732412e+000 
 4.7358913e+000  0.0000000e+000  0.0000000e+000  0.0000000e+000  0.0000000e+000  1.8312957e+000  1.8312957e+000  1.8312957e+000 
 5.0919890e+000  0.0000000e+000  0.0000000e+000  0.0000000e+000  0.0000000e+000  1.7869232e+000  1.7869232e+000  1.7869232e+000 
 5.4730139e+000  0.0000000e+000  0.0000000e+000  0.0000000e+000  0.0000000e+000  1.7398996e+000  1.7398996e+000  1.7398996e+000 
 5.8807087e+000  0.0000000e+000  0.0000000e+000  0.0000000e+000  0.0000000e+000  1.6899815e+000  1.6899815e+000  1.6899815e+000 
 6.3169422e+000  0.0000000e+000  0.0000000e+000  0.0000000e+000  0.0000000e+000  1.6369097e+000  1.6369097e+000  1.6369097e+000 
 6.7837143e+000  0.0000000e+000  0.0000000e+000  0.0000000e+000  0.0000000e+000  1.5804087e+000  1.5804087e+000  1.5804087e+000 
 7.2831593e+000  0.0000000e+000  0.0000000e+000  0.0000000e+000  0.0000000e+000  1.5201873e+000  1.5201873e+000  1.5201873e+000 
 7.8175659e+000  0.0000000e+000  0.0000000e+000  0.0000000e+000  0.0000000e+000  1.4559379e+000  1.4559379e+000  1.4559379e+000 
 8.3893795e+000  0.0000000e+000  0.0000000e+000  0.0000000e+000  0.0000000e+000  1.3873386e+000  1.3873386e+000  1.3873386e+000 
 9.0012217e+000  0.0000000e+000  0.0000000e+000  0.0000000e+000  0.0000000e+000  1.3140489e+000  1.3140489e+000  1.3140489e+000 
 9.6558924e+000  0.0000000e+000  0.0000000e+000  0.0000000e+000  0.0000000e+000  1.2357117e+000  1.2357117e+000  1.2357117e+000 
 1.0356388e+001  0.0000000e+000  0.0000000e+000  0.0000000e+000  0.0000000e+000  1.1519507e+000  1.1519507e+000  1.1519507e+000 
 1.1105920e+001  0.0000000e+000  0.0000000e+000  0.0000000e+000  0.0000000e+000  1.0623677e+000  1.0623677e+000  1.0623677e+000 
 1.1907920e+001  0.0000000e+000  0.0000000e+000  0.0000000e+000  0.0000000e+000  9.6654207e-001  9.6654207e-001  9.6654207e-001 
 1.2766060e+001  0.0000000e+000  0.0000000e+000  0.0000000e+000  0.0000000e+000  8.6402500e-001  8.6402500e-001  8.6402500e-001 
 1.3684270e+001  0.0000000e+000  0.0000000e+000  0.0000000e+000  0.0000000e+000  7.5434452e-001  7.5434452e-001  7.5434452e-001 
 1.4666756e+001  0.0000000e+000  0.0000000e+000  0.0000000e+000  0.0000000e+000  6.3699239e-001  6.3699239e-001  6.3699239e-001 
 1.5718015e+001  0.0000000e+000  0.0000000e+000  0.0000000e+000  0.0000000e+000  5.1143020e-001  5.1143020e-001  5.1143020e-001 
 1.6842865e+001  0.0000000e+000  0.0000000e+000  0.0000000e+000  0.0000000e+000  3.7708011e-001  3.7708011e-001  3.7708011e-001 
 1.8046452e+001  0.0000000e+000  0.0000000e+000  0.0000000e+000  0.0000000e+000  2.3332654e-001  2.3332654e-001  2.3332654e-001 
 1.9334295e+001  0.0000000e+000  0.0000000e+000  0.0000000e+000  0.0000000e+000  7.9510301e-002  7.9510301e-002  7.9510301e-002 
 2.0000000e+001  0.0000000e+000  0.0000000e+000  0.0000000e+000  0.0000000e+000  5.5912062e-007  5.5912062e-007  5.5912062e-007 
 0.0000000e+000  1.5686335e-002  1.0000000e+000  0.0000000e+000  1.0000000e+000  3.8754456e+000  3.8754456e+000  4.3754454e+000 
 1.2291715e-002  1.5686335e-002  9.2849725e-001  1.8524969e-001  9.4679701e-001  3.6759598e+000  3.6759598e+000  4.1241722e+000 
 3.7736509e-002  1.5686335e-002  7.7613747e-001  1.6152130e-001  7.9276633e-001  3.2630091e+000  3.2630091e+000  3.5772483e+000 
 6.4963534e-002  1.5686335e-002  6.1428821e-001  1.0551333e-001  6.2328410e-001  2.9851651e+000  2.9851651e+000  3.1794066e+000 
 9.4095588e-002  1.5686335e-002  4.7981158e-001  5.8668133e-002  4.8338506e-001  2.8118618e+000  2.8118618e+000  2.9286923e+000 
 1.2526625e-001  1.5686335e-002  3.8272840e-001  2.8687393e-002  3.8380203e-001  2.7070029e+000  2.7070029e+000  2.7806549e+000 
 1.5861896e-001  1.5686335e-002  3.1656957e-001  1.2267505e-002  3.1680718e-001  2.6462440e+000  2.6462440e+000  2.6964273e+000 
 1.9430619e-001  1.5686335e-002  2.7193627e-001  4.6302467e-003  2.7197570e-001  2.6104040e+000  2.6104040e+000  2.6473894e+000 
 2.3249130e-001  1.5686335e-002  2.4089161e-001  1.6845493e-003  2.4089749e-001  2.5863588e+000  2.5863588e+000  2.6153746e+000 
 2.7334976e-001  1.5686335e-002  2.1799508e-001  7.5798220e-004  2.1799639e-001  2.5672953e+000  2.5672953e+000  2.5910566e+000 
 3.1706923e-001  1.5686335e-002  2.0010239e-001  5.2680820e-004  2.0010309e-001  2.5503170e+000  2.5503170e+000  2.5703378e+000 
 3.6384889e-001  1.5686335e-002  1.8554202e-001  4.5989017e-004  1.8554258e-001  2.5343766e+000  2.5343766e+000  2.5515897e+000 
 4.1390228e-001  1.5686335e-002  1.7345469e-001  4.0109057e-004  1.7345515e-001  2.5190644e+000  2.5190644e+000  2.5341077e+000 
 4.6745992e-001  1.5686335e-002  1.6333199e-001  3.4230851e-004  1.6333234e-001  2.5040646e+000  2.5040646e+000  2.5174034e+000 
 5.2476656e-001  1.5686335e-002  1.5479612e-001  2.8786395e-004  1.5479639e-001  2.4891303e+000  2.4891303e+000  2.5011113e+000 
 5.8608472e-001  1.5686335e-002  1.4755245e-001  2.4098936e-004  1.4755264e-001  2.4740603e+000  2.4740603e+000  2.4849463e+000 
 6.5169525e-001  1.5686335e-002  1.4137170e-001  2.0070944e-004  1.4137185e-001  2.4586916e+000  2.4586916e+000  2.4686847e+000 
 7.2189790e-001  1.5686335e-002  1.3606341e-001  1.6916092e-004  1.3606352e-001  2.4428780e+000  2.4428780e+000  2.4521346e+000 
 7.9701531e-001  1.5686335e-002  1.3146849e-001  1.4342337e-004  1.3146856e-001  2.4265192e+000  2.4265192e+000  2.4351611e+000 
 8.7739104e-001  1.5686335e-002  1.2745871e-001  1.2296480e-004  1.2745877e-001  2.4095323e+000  2.4095323e+000  2.4176552e+000 
 9.6339333e-001  1.5686335e-002  1.2392861e-001  1.0627775e-004  1.2392865e-001  2.3918588e+000  2.3918588e+000  2.3995380e+000 
 1.0554160e+000  1.5686335e-002  1.2079460e-001  9.2471382e-005  1.2079464e-001  2.3734529e+000  2.3734529e+000  2.3807485e+000 
 1.1538795e+000  1.5686335e-002  1.1798151e-001  8.1961924e-005  1.1798154e-001  2.3542743e+000  2.3542743e+000  2.3612342e+000 
 1.2592361e+000  1.5686335e-002  1.1543190e-001  7.2345880e-005  1.1543192e-001  2.3343084e+000  2.3343084e+000  2.3409708e+000 
 1.3719671e+000  1.5686335e-002  1.1310680e-001  6.4115273e-005  1.1310682e-001  2.3135302e+000  2.3135302e+000  2.3199267e+000 
 1.4925885e+000  1.5686335e-002  1.1097366e-001  5.6900906e-005  1.1097368e-001  2.2919154e+000  2.2919154e+000  2.2980731e+000 
 1.6216545e+000  1.5686335e-002  1.0900863e-001  5.0313116e-005  1.0900864e-001  2.2694383e+000  2.2694383e+000  2.2753797e+000 
 1.7597550e+000  1.5686335e-002  1.0719422e-001  4.4331962e-005  1.0719423e-001  2.2460670e+000  2.2460670e+000  2.2518125e+000 
 1.9075224e+000  1.5686335e-002  1.0551665e-001  3.9080558e-005  1.0551666e-001  2.2217631e+000  2.2217631e+000  2.2273300e+000 
 2.0656340e+000  1.5686335e-002  1.0396560e-001  3.4387471e-005  1.0396561e-001  2.1964827e+000  2.1964827e+000  2.2018871e+000 
 2.2348135e+000  1.5686335e-002  1.0253395e-001  2.9975568e-005  1.0253396e-001  2.1701729e+000  2.1701729e+000  2.1754296e+000 
 2.4158354e+000  1.5686335e-002  1.0121611e-001  2.6019528e-005  1.0121611e-001  2.1427729e+000  2.1427729e+000  2.1478953e+000 
 2.6095285e+000  1.5686335e-002  1.0000777e-001  2.2399352e-005  1.0000777e-001  2.1142118e+000  2.1142118e+000  2.1192126e+000 
 2.8167806e+000  1.5686335e-002  9.8905645e-002  1.9372643e-005  9.8905645e-002  2.0844088e+000  2.0844088e+000  2.0892999e+000 
 3.0385399e+000  1.5686335e-002  9.7906955e-002  1.6294842e-005  9.7906955e-002  2.0532694e+000  2.0532694e+000  2.0580623e+000 
 3.2758224e+000  1.5686335e-002  9.7008646e-002  1.3764367e-005  9.7008646e-002  2.0206881e+000  2.0206881e+000  2.0253935e+000 
 3.5297146e+000  1.5686335e-002  9.6208356e-002  1.1518282e-005  9.6208356e-002  1.9865428e+000  1.9865428e+000  1.9911709e+000 
 3.8013785e+000  1.5686335e-002  9.5502675e-002  9.5524347e-006  9.5502675e-002  1.9506947e+000  1.9506947e+000  1.9552550e+000 
 4.0920601e+000  1.5686335e-002  9.4887316e-002  7.6813039e-006  9.4887316e-002  1.9129906e+000  1.9129906e+000  1.9174924e+000 
 4.4030900e+000  1.5686335e-002  9.4357744e-002  6.1606456e-006  9.4357744e-002  1.8732585e+000  1.8732585e+000  1.8777101e+000 
 4.7358913e+000  1.5686335e-002  9.3908541e-002  4.9324804e-006  9.3908541e-002  1.8313092e+000  1.8313092e+000  1.8357186e+000 
 5.0919890e+000  1.5686335e-002  9.3533389e-002  3.7795282e-006  9.3533389e-002  1.7869337e+000  1.7869337e+000  1.7913079e+000 
 5.4730139e+000  1.5686335e-002  9.3225308e-002  2.9880459e-006  9.3225308e-002  1.7399075e+000  1.7399075e+000  1.7442530e+000 
 5.8807087e+000  1.5686335e-002  9.2976891e-002  2.1426786e-006  9.2976891e-002  1.6899874e+000  1.6899874e+000  1.6943098e+000 
 6.3169422e+000  1.5686335e-002  9.2780411e-002  1.5407135e-006  9.2780411e-002  1.6369141e+000  1.6369141e+000  1.6412182e+000 
 6.7837143e+000  1.5686335e-002  9.2628174e-002  1.0731229e-006  9.2628174e-002  1.5804118e+000  1.5804118e+000  1.5847018e+000 
 7.2831593e+000  1.5686335e-002  9.2512861e-002  7.8639766e-007  9.2512861e-002  1.5201894e+000  1.5201894e+000  1.5244687e+000 
 7.8175659e+000  1.5686335e-002  9.2427529e-002  5.5708011e-007  9.2427529e-002  1.4559393e+000  1.4559393e+000  1.4602107e+000 
 8.3893795e+000  1.5686335e-002  9.2365861e-002  3.8130537e-007  9.2365861e-002  1.3873396e+000  1.3873396e+000  1.3916054e+000 
 9.0012217e+000  1.5686335e-002  9.2322610e-002  2.4140130e-007  9.2322610e-002  1.3140495e+000  1.3140495e+000  1.3183112e+000 
 9.6558924e+000  1.5686335e-002  9.2292942e-002  1.7865236e-007  9.2292942e-002  1.2357121e+000  1.2357121e+000  1.2399710e+000 
 1.0356388e+001  1.5686335e-002  9.2273295e-002  8.9372122e-008  9.2273295e-002  1.1519510e+000  1.1519510e+000  1.1562082e+000 
 1.1105920e+001  1.5686335e-002  9.2260614e-002  3.7172512e-008  9.2260614e-002  1.0623678e+000  1.0623678e+000  1.0666238e+000 
 1.1907920e+001  1.5686335e-002  9.2252791e-002  3.5742019e-008  9.2252791e-002  9.6654212e-001  9.6654212e-001  9.7079742e-001 
 1.2766060e+001  1.5686335e-002  9.2248157e-002  3.3399658e-008  9.2248157e-002  8.6402500e-001  8.6402500e-001  8.6827987e-001 
 1.3684270e+001  1.5686335e-002  9.2245325e-002  7.4437887e-009  9.2245325e-002  7.5434452e-001  7.5434452e-001  7.5859910e-001 
 1.4666756e+001  1.5686335e-002  9.2243806e-002 -6.4174124e-009  9.2243806e-002  6.3699239e-001  6.3699239e-001  6.4124686e-001 
 1.5718015e+001  1.5686335e-002  9.2242934e-002  1.4800022e-008  9.2242934e-002  5.1143020e-001  5.1143020e-001  5.1568460e-001 
 1.6842865e+001  1.5686335e-002  9.2242524e-002 -5.9365495e-009  9.2242524e-002  3.7708011e-001  3.7708011e-001  3.8133445e-001 
 1.8046452e+001  1.5686335e-002  9.2242330e-002  2.5321339e-011  9.2242330e-002  2.3332654e-001  2.3332654e-001  2.3758087e-001 
 1.9334295e+001  1.5686335e-002  9.2242248e-002 -2.3419862e-008  9.2242248e-002  7.9510130e-002  7.9510130e-002  8.3764449e-002 
 2.0000000e+001  1.5686335e-002  9.2242248e-002 -2.6305903e-008  9.2242248e-002  0.0000000e+000  0.0000000e+000  4.2543160e-003 
 0.0000000e+000  4.8627645e-002  1.0000000e+000  0.0000000e+000  1.0000000e+000  3.2558730e+000  3.2558730e+000  3.7558730e+000 
 1.2291715e-002  4.8627645e-002  1.0379833e+000  1.3765475e-001  1.0470712e+000  3.1828871e+000  3.1828871e+000  3.7310662e+000 
 3.7736509e-002  4.8627645e-002  1.0744700e+000  2.3167604e-001  1.0991632e+000  3.0318005e+000  3.0318005e+000  3.6358802e+000 
 6.4963534e-002  4.8627645e-002  1.0592774e+000  2.2801647e-001  1.0835406e+000  2.9035139e+000  2.9035139e+000  3.4905441e+000 
 9.4095588e-002  4.8627645e-002  1.0037814e+000  1.8911059e-001  1.0214401e+000  2.8069406e+000  2.8069406e+000  3.3286107e+000 
 1.2526625e-001  4.8627645e-002  9.2783427e-001  1.3918689e-001  9.3821609e-001  2.7337389e+000  2.7337389e+000  3.1738636e+000 
 1.5861896e-001  4.8627645e-002  8.4544885e-001  9.6418411e-002  8.5092908e-001  2.6795902e+000  2.6795902e+000  3.0416303e+000 
 1.9430619e-001  4.8627645e-002  7.6722246e-001  6.5673977e-002  7.7002817e-001  2.6396220e+000  2.6396220e+000  2.9360936e+000 
 2.3249130e-001  4.8627645e-002  6.9811726e-001  4.5547169e-002  6.9960147e-001  2.6087711e+000  2.6087711e+000  2.8534923e+000 
 2.7334976e-001  4.8627645e-002  6.3928390e-001  3.2614645e-002  6.4011532e-001  2.5836136e+000  2.5836136e+000  2.7884874e+000 
 3.1706923e-001  4.8627645e-002  5.8996773e-001  2.4138462e-002  5.9046131e-001  2.5620937e+000  2.5620937e+000  2.7364161e+000 
 3.6384889e-001  4.8627645e-002  5.4865700e-001  1.8315768e-002  5.4896265e-001  2.5429933e+000  2.5429933e+000  2.6936734e+000 
 4.1390228e-001  4.8627645e-002  5.1391119e-001  1.4103892e-002  5.1410466e-001  2.5255005e+000  2.5255005e+000  2.6576524e+000 
 4.6745992e-001  4.8627645e-002  4.8454967e-001  1.0984969e-002  4.8467419e-001  2.5089574e+000  2.5089574e+000  2.6264119e+000 
 5.2476656e-001  4.8627645e-002  4.5960599e-001  8.6369487e-003  4.5968714e-001  2.4929037e+000  2.4929037e+000  2.5985599e+000 
 5.8608472e-001  4.8627645e-002  4.3830705e-001  6.8458854e-003  4.3836051e-001  2.4770038e+000  2.4770038e+000  2.5730839e+000 
 6.5169525e-001  4.8627645e-002  4.2004055e-001  5.4633701e-003  4.2007607e-001  2.4610105e+000  2.4610105e+000  2.5492425e+000 
 7.2189790e-001  4.8627645e-002  4.0429634e-001  4.3970621e-003  4.0432024e-001  2.4447210e+000  2.4447210e+000  2.5264585e+000 
 7.9701531e-001  4.8627645e-002  3.9064476e-001  3.5678318e-003  3.9066106e-001  2.4279969e+000  2.4279969e+000  2.5043049e+000 
 8.7739104e-001  4.8627645e-002  3.7873003e-001  2.9208877e-003  3.7874129e-001  2.4107280e+000  2.4107280e+000  2.4824505e+000 
 9.6339333e-001  4.8627645e-002  3.6825517e-001  2.4126272e-003  3.6826307e-001  2.3928351e+000  2.3928351e+000  2.4606440e+000 
 1.0554160e+000  4.8627645e-002  3.5897827e-001  2.0114044e-003  3.5898390e-001  2.3742580e+000  2.3742580e+000  2.4386928e+000 
 1.1538795e+000  4.8627645e-002  3.5068262e-001  1.6960860e-003  3.5068673e-001  2.3549447e+000  2.3549447e+000  2.4164352e+000 
 1.2592361e+000  4.8627645e-002  3.4319741e-001  1.4406764e-003  3.4320042e-001  2.3348722e+000  2.3348722e+000  2.3937654e+000 
 1.3719671e+000  4.8627645e-002  3.3640009e-001  1.2315117e-003  3.3640236e-001  2.3140075e+000  2.3140075e+000  2.3705907e+000 
 1.4925885e+000  4.8627645e-002  3.3019045e-001  1.0584322e-003  3.3019215e-001  2.2923222e+000  2.2923222e+000  2.3468356e+000 
 1.6216545e+000  4.8627645e-002  3.2449245e-001  9.1221364e-004  3.2449374e-001  2.2697864e+000  2.2697864e+000  2.3224344e+000 
 1.7597550e+000  4.8627645e-002  3.1924924e-001  7.8760047e-004  3.1925023e-001  2.2463658e+000  2.2463658e+000  2.2973261e+000 
 1.9075224e+000  4.8627645e-002  3.1441650e-001  6.8065448e-004  3.1441724e-001  2.2220199e+000  2.2220199e+000  2.2714491e+000 
 2.0656340e+000  4.8627645e-002  3.0996048e-001  5.8777712e-004  3.0996105e-001  2.1967032e+000  2.1967032e+000  2.2447412e+000 
 2.2348135e+000  4.8627645e-002  3.0585727e-001  5.0652213e-004  3.0585769e-001  2.1703622e+000  2.1703622e+000  2.2171366e+000 
 2.4158354e+000  4.8627645e-002  3.0208823e-001  4.3472744e-004  3.0208853e-001  2.1429348e+000  2.1429348e+000  2.1885636e+000 
 2.6095285e+000  4.8627645e-002  2.9863906e-001  3.7165519e-004  2.9863930e-001  2.1143498e+000  2.1143498e+000  2.1589425e+000 
 2.8167806e+000  4.8627645e-002  2.9549837e-001  3.1591492e-004  2.9549855e-001  2.0845256e+000  2.0845256e+000  2.1281853e+000 
 3.0385399e+000  4.8627645e-002  2.9265675e-001  2.6656903e-004  2.9265687e-001  2.0533681e+000  2.0533681e+000  2.0961921e+000 
 3.2758224e+000  4.8627645e-002  2.9010454e-001  2.2303213e-004  2.9010463e-001  2.0207703e+000  2.0207703e+000  2.0628507e+000 
 3.5297146e+000  4.8627645e-002  2.8783333e-001  1.8490679e-004  2.8783339e-001  1.9866108e+000  1.9866108e+000  2.0280347e+000 
 3.8013785e+000  4.8627645e-002  2.8583291e-001  1.5159931e-004  2.8583294e-001  1.9507504e+000  1.9507504e+000  1.9916006e+000 
 4.0920601e+000  4.8627645e-002  2.8409040e-001  1.2282089e-004  2.8409043e-001  1.9130358e+000  1.9130358e+000  1.9533894e+000 
 4.4030900e+000  4.8627645e-002  2.8259209e-001  9.8066113e-005  2.8259212e-001  1.8732944e+000  1.8732944e+000  1.9132235e+000 
 4.7358913e+000  4.8627645e-002  2.8132206e-001  7.7273769e-005  2.8132206e-001  1.8313375e+000  1.8313375e+000  1.8709085e+000 
 5.0919890e+000  4.8627645e-002  2.8026202e-001  5.9821454e-005  2.8026202e-001  1.7869556e+000  1.7869556e+000  1.8262290e+000 
 5.4730139e+000  4.8627645e-002  2.7939203e-001  4.5687095e-005  2.7939203e-001  1.7399241e+000  1.7399241e+000  1.7789540e+000 
 5.8807087e+000  4.8627645e-002  2.7869076e-001  3.4000313e-005  2.7869076e-001  1.6899999e+000  1.6899999e+000  1.7288342e+000 
 6.3169422e+000  4.8627645e-002  2.7813628e-001  2.4835665e-005  2.7813628e-001  1.6369233e+000  1.6369233e+000  1.6756032e+000 
 6.7837143e+000  4.8627645e-002  2.7770680e-001  1.7767057e-005  2.7770680e-001  1.5804183e+000  1.5804183e+000  1.6189789e+000 
 7.2831593e+000  4.8627645e-002  2.7738151e-001  1.2531925e-005  2.7738151e-001  1.5201939e+000  1.5201939e+000  1.5586642e+000 
 7.8175659e+000  4.8627645e-002  2.7714092e-001  8.5212032e-006  2.7714092e-001  1.4559424e+000  1.4559424e+000  1.4943459e+000 
 8.3893795e+000  4.8627645e-002  2.7696699e-001  5.6835893e-006  2.7696699e-001  1.3873416e+000  1.3873416e+000  1.4256970e+000 
 9.0012217e+000  4.8627645e-002  2.7684501e-001  3.6461452e-006  2.7684501e-001  1.3140508e+000  1.3140508e+000  1.3523724e+000 
 9.6558924e+000  4.8627645e-002  2.7676135e-001  2.2967856e-006  2.7676135e-001  1.2357129e+000  1.2357129e+000  1.2740113e+000 
 1.0356388e+001  4.8627645e-002  2.7670595e-001  1.4156635e-006  2.7670595e-001  1.1519514e+000  1.1519514e+000  1.1902345e+000 
 1.1105920e+001  4.8627645e-002  2.7667019e-001  8.1244184e-007  2.7667019e-001  1.0623682e+000  1.0623682e+000  1.1006414e+000 
 1.1907920e+001  4.8627645e-002  2.7664807e-001  4.7043170e-007  2.7664807e-001  9.6654230e-001  9.6654230e-001  1.0048094e+000 
 1.2766060e+001  4.8627645e-002  2.7663499e-001  2.9089423e-007  2.7663499e-001  8.6402506e-001  8.6402506e-001  9.0228850e-001 
 1.3684270e+001  4.8627645e-002  2.7662700e-001  7.6423390e-008  2.7662700e-001  7.5434458e-001  7.5434458e-001  7.9260582e-001 
 1.4666756e+001  4.8627645e-002  2.7662271e-001  9.2451762e-009  2.7662271e-001  6.3699245e-001  6.3699245e-001  6.7525250e-001 
 1.5718015e+001  4.8627645e-002  2.7662024e-001  6.1467119e-008  2.7662024e-001  5.1143020e-001  5.1143020e-001  5.4968959e-001 
 1.6842865e+001  4.8627645e-002  2.7661905e-001 -1.2487628e-008  2.7661905e-001  3.7708011e-001  3.7708011e-001  4.1533917e-001 
 1.8046452e+001  4.8627645e-002  2.7661848e-001  3.3720369e-009  2.7661848e-001  2.3332654e-001  2.3332654e-001  2.7158543e-001 
 1.9334295e+001  4.8627645e-002  2.7661824e-001  1.7007823e-008  2.7661824e-001  7.9509780e-002  7.9509780e-002  1.1776861e-001 
 2.0000000e+001  4.8627645e-002  2.7661824e-001  1.4875030e-008  2.7661824e-001  0.0000000e+000  0.0000000e+000  3.8258824e-002 
 0.0000000e+000  8.4863111e-002  1.0000000e+000  0.0000000e+000  1.0000000e+000  2.9742434e+000  2.9742434e+000  3.4742434e+000 
 1.2291715e-002  8.4863111e-002  1.0138501e+000  6.1008453e-002  1.0156840e+000  2.9588327e+000  2.9588327e+000  3.4746397e+000 
 3.7736509e-002  8.4863111e-002  1.0574800e+000  1.4907102e-001  1.0679355e+000  2.9269314e+000  2.9269314e+000  3.4971745e+000 
 6.4963534e-002  8.4863111e-002  1.1032639e+000  1.9387993e-001  1.1201699e+000  2.8613749e+000  2.8613749e+000  3.4887652e+000 
 9.4095588e-002  8.4863111e-002  1.1275079e+000  2.0138687e-001  1.1453518e+000  2.7925322e+000  2.7925322e+000  3.4484477e+000 
 1.2526625e-001  8.4863111e-002  1.1261050e+000  1.8865991e-001  1.1417990e+000  2.7313623e+000  2.7313623e+000  3.3832147e+000 
 1.5861896e-001  8.4863111e-002  1.1033338e+000  1.6438532e-001  1.1155125e+000  2.6828890e+000  2.6828890e+000  3.3050730e+000 
 1.9430619e-001  8.4863111e-002  1.0643374e+000  1.3624175e-001  1.0730219e+000  2.6460609e+000  2.6460609e+000  3.2217488e+000 
 2.3249130e-001  8.4863111e-002  1.0165049e+000  1.1003208e-001  1.0224428e+000  2.6165750e+000  2.6165750e+000  3.1392696e+000 
 2.7334976e-001  8.4863111e-002  9.6520865e-001  8.7558806e-002  9.6917194e-001  2.5916421e+000  2.5916421e+000  3.0612893e+000 
 3.1706923e-001  8.4863111e-002  9.1466546e-001  6.9277935e-002  9.1728532e-001  2.5694995e+000  2.5694995e+000  2.9902058e+000 
 3.6384889e-001  8.4863111e-002  8.6686993e-001  5.4818206e-002  8.6860144e-001  2.5494220e+000  2.5494220e+000  2.9266562e+000 
 4.1390228e-001  8.4863111e-002  8.2291049e-001  4.3403942e-002  8.2405436e-001  2.5308723e+000  2.5308723e+000  2.8704052e+000 
 4.6745992e-001  8.4863111e-002  7.8326917e-001  3.4456022e-002  7.8402668e-001  2.5133231e+000  2.5133231e+000  2.8206720e+000 
 5.2476656e-001  8.4863111e-002  7.4796176e-001  2.7444510e-002  7.4846512e-001  2.4963951e+000  2.4963951e+000  2.7764952e+000 
 5.8608472e-001  8.4863111e-002  7.1674532e-001  2.1943146e-002  7.1708113e-001  2.4797759e+000  2.4797759e+000  2.7368786e+000 
 6.5169525e-001  8.4863111e-002  6.8926591e-001  1.7615255e-002  6.8949097e-001  2.4632072e+000  2.4632072e+000  2.7009060e+000 
 7.2189790e-001  8.4863111e-002  6.6511554e-001  1.4222330e-002  6.6526759e-001  2.4464617e+000  2.4464617e+000  2.6677523e+000 
 7.9701531e-001  8.4863111e-002  6.4387536e-001  1.1553733e-002  6.4397901e-001  2.4293814e+000  2.4293814e+000  2.6367359e+000 
 8.7739104e-001  8.4863111e-002  6.2515152e-001  9.4528487e-003  6.2522298e-001  2.4118340e+000  2.4118340e+000  2.6072860e+000 
 9.6339333e-001  8.4863111e-002  6.0858291e-001  7.7920351e-003  6.0863280e-001  2.3937244e+000  2.3937244e+000  2.5789413e+000 
 1.0554160e+000  8.4863111e-002  5.9385383e-001  6.4765792e-003  5.9388918e-001  2.3749778e+000  2.3749778e+000  2.5513301e+000 
 1.1538795e+000  8.4863111e-002  5.8066487e-001  5.4370696e-003  5.8069032e-001  2.3555322e+000  2.3555322e+000  2.5241327e+000 
 1.2592361e+000  8.4863111e-002  5.6876993e-001  4.5981663e-003  5.6878853e-001  2.3353570e+000  2.3353570e+000  2.4971170e+000 
 1.3719671e+000  8.4863111e-002  5.5798388e-001  3.9138100e-003  5.5799758e-001  2.3144109e+000  2.3144109e+000  2.4700916e+000 
 1.4925885e+000  8.4863111e-002  5.4815120e-001  3.3489903e-003  5.4816145e-001  2.2926602e+000  2.2926602e+000  2.4429007e+000 
 1.6216545e+000  8.4863111e-002  5.3915006e-001  2.8758317e-003  5.3915775e-001  2.2700717e+000  2.2700717e+000  2.4154172e+000 
 1.7597550e+000  8.4863111e-002  5.3088695e-001  2.4752514e-003  5.3089273e-001  2.2466078e+000  2.2466078e+000  2.3875313e+000 
 1.9075224e+000  8.4863111e-002  5.2328855e-001  2.1326619e-003  5.2329290e-001  2.2222257e+000  2.2222257e+000  2.3591435e+000 
 2.0656340e+000  8.4863111e-002  5.1629770e-001  1.8366468e-003  5.1630098e-001  2.1968784e+000  2.1968784e+000  2.3301618e+000 
 2.2348135e+000  8.4863111e-002  5.0987345e-001  1.5789027e-003  5.0987589e-001  2.1705115e+000  2.1705115e+000  2.3004982e+000 
 2.4158354e+000  8.4863111e-002  5.0398368e-001  1.3530251e-003  5.0398546e-001  2.1430619e+000  2.1430619e+000  2.2700624e+000 
 2.6095285e+000  8.4863111e-002  4.9860343e-001  1.1544081e-003  4.9860477e-001  2.1144576e+000  2.1144576e+000  2.2387609e+000 
 2.8167806e+000  8.4863111e-002  4.9371263e-001  9.7959233e-004  4.9371362e-001  2.0846164e+000  2.0846164e+000  2.2064929e+000 
 3.0385399e+000  8.4863111e-002  4.8929444e-001  8.2554808e-004  4.8929513e-001  2.0534441e+000  2.0534441e+000  2.1731491e+000 
 3.2758224e+000  8.4863111e-002  4.8533240e-001  6.8982888e-004  4.8533288e-001  2.0208337e+000  2.0208337e+000  2.1386077e+000 
 3.5297146e+000  8.4863111e-002  4.8181126e-001  5.7128636e-004  4.8181158e-001  1.9866629e+000  1.9866629e+000  2.1027341e+000 
 3.8013785e+000  8.4863111e-002  4.7871369e-001  4.6772821e-004  4.7871393e-001  1.9507929e+000  1.9507929e+000  2.0653765e+000 
 4.0920601e+000  8.4863111e-002  4.7601876e-001  3.7858170e-004  4.7601891e-001  1.9130703e+000  1.9130703e+000  2.0263674e+000 
 4.4030900e+000  8.4863111e-002  4.7370395e-001  3.0222008e-004  4.7370404e-001  1.8733219e+000  1.8733219e+000  1.9855196e+000 
 4.7358913e+000  8.4863111e-002  4.7174352e-001  2.3788108e-004  4.7174358e-001  1.8313590e+000  1.8313590e+000  1.9426301e+000 
 5.0919890e+000  8.4863111e-002  4.7010842e-001  1.8426460e-004  4.7010845e-001  1.7869723e+000  1.7869723e+000  1.8974732e+000 
 5.4730139e+000  8.4863111e-002  4.6876740e-001  1.4016283e-004  4.6876743e-001  1.7399367e+000  1.7399367e+000  1.8498082e+000 
 5.8807087e+000  8.4863111e-002  4.6768704e-001  1.0451209e-004  4.6768704e-001  1.6900095e+000  1.6900095e+000  1.7993751e+000 
 6.3169422e+000  8.4863111e-002  4.6683314e-001  7.6522629e-005  4.6683314e-001  1.6369302e+000  1.6369302e+000  1.7458968e+000 