Variables = "x","y","z", "Shear Stress_x", "Shear Stress_y", "Shear Stress_z", "Shear Stress_circ", "Skin Friction"
Zone i=1, j=22, k=2
 0.0000000e+000  0.0000000e+000  0.0000000e+000  1.0000000e+000  0.0000000e+000  0.0000000e+000  0.0000000e+000 -4.0567768e-001 
 0.0000000e+000  1.5686335e-002  0.0000000e+000  1.0000000e+000  0.0000000e+000  0.0000000e+000 -1.0000000e+000 -4.0567768e-001 
 0.0000000e+000  4.8627645e-002  0.0000000e+000  1.0000000e+000  0.0000000e+000  0.0000000e+000 -1.0000000e+000  2.7286372e-001 
 0.0000000e+000  8.4863111e-002  0.0000000e+000  1.0000000e+000  0.0000000e+000  0.0000000e+000 -1.0000000e+000  1.0905534e-001 
 0.0000000e+000  1.2472210e-001  0.0000000e+000  1.0000000e+000  0.0000000e+000  0.0000000e+000 -1.0000000e+000  4.6636563e-002 
 0.0000000e+000  1.6856700e-001  0.0000000e+000  1.0000000e+000  0.0000000e+000  0.0000000e+000 -1.0000000e+000  2.5428776e-002 
 0.0000000e+000  2.1679640e-001  0.0000000e+000  1.0000000e+000  0.0000000e+000  0.0000000e+000 -1.0000000e+000  1.5794398e-002 
 0.0000000e+000  2.6984873e-001  0.0000000e+000  1.0000000e+000  0.0000000e+000  0.0000000e+000 -1.0000000e+000  1.0176573e-002 
 0.0000000e+000  3.2820630e-001  0.0000000e+000  1.0000000e+000  0.0000000e+000  0.0000000e+000 -1.0000000e+000  6.3726972e-003 
 0.0000000e+000  3.9239961e-001  0.0000000e+000  1.0000000e+000  0.0000000e+000  0.0000000e+000 -1.0000000e+000  3.5284092e-003 
 0.0000000e+000  4.6301234e-001  0.0000000e+000  1.0000000e+000  0.0000000e+000  0.0000000e+000 -1.0000000e+000  1.1341692e-003 
 0.0000000e+000  5.3700137e-001  0.0000000e+000  1.0000000e+000  0.0000000e+000  0.0000000e+000 -1.0000000e+000  1.1344975e-003 
 0.0000000e+000  6.0763693e-001  0.0000000e+000  1.0000000e+000  0.0000000e+000  0.0000000e+000 -1.0000000e+000  3.5294655e-003 
 0.0000000e+000  6.7184472e-001  0.0000000e+000  1.0000000e+000  0.0000000e+000  0.0000000e+000 -1.0000000e+000  6.3750213e-003 
 0.0000000e+000  7.3020971e-001  0.0000000e+000  1.0000000e+000  0.0000000e+000  0.0000000e+000 -1.0000000e+000  1.0180759e-002 
 0.0000000e+000  7.8326333e-001  0.0000000e+000  1.0000000e+000  0.0000000e+000  0.0000000e+000 -1.0000000e+000  1.5801914e-002 
 0.0000000e+000  8.3148909e-001  0.0000000e+000  1.0000000e+000  0.0000000e+000  0.0000000e+000 -1.0000000e+000  2.5443673e-002 
 0.0000000e+000  8.7532640e-001  0.0000000e+000  1.0000000e+000  0.0000000e+000  0.0000000e+000 -1.0000000e+000  4.6674605e-002 
 0.0000000e+000  9.1517437e-001  0.0000000e+000  1.0000000e+000  0.0000000e+000  0.0000000e+000 -1.0000000e+000  1.0916320e-001 
 0.0000000e+000  9.5139623e-001  0.0000000e+000  1.0000000e+000  0.0000000e+000  0.0000000e+000 -1.0000000e+000  2.7307341e-001 
 0.0000000e+000  9.8432189e-001  0.0000000e+000  1.0000000e+000  0.0000000e+000  0.0000000e+000 -1.0000000e+000 -4.0577334e-001 
 0.0000000e+000  1.0000000e+000  0.0000000e+000  1.0000000e+000  0.0000000e+000  0.0000000e+000 -1.0000000e+000 -4.0577334e-001 
 0.0000000e+000  0.0000000e+000  1.0000000e+000 -1.1523084e-001  2.0283884e-001  0.0000000e+000  0.0000000e+000 -4.0567768e-001 
 0.0000000e+000  1.5686335e-002  1.0000000e+000 -1.1523084e-001  2.0283884e-001  0.0000000e+000  1.1523084e-001 -4.0567768e-001 
 0.0000000e+000  4.8627645e-002  1.0000000e+000  7.2592460e-002  1.3643186e-001  0.0000000e+000 -7.2592460e-002  2.7286372e-001 
 0.0000000e+000  8.4863111e-002  1.0000000e+000  1.8705836e-002  5.4527666e-002  0.0000000e+000 -1.8705836e-002  1.0905534e-001 
 0.0000000e+000  1.2472210e-001  1.0000000e+000  2.2396313e-003  2.3318281e-002  0.0000000e+000 -2.2396313e-003  4.6636563e-002 
 0.0000000e+000  1.6856700e-001  1.0000000e+000  1.0763809e-004  1.2714388e-002  0.0000000e+000 -1.0763809e-004  2.5428776e-002 
 0.0000000e+000  2.1679640e-001  1.0000000e+000  5.8468650e-005  7.8971991e-003  0.0000000e+000 -5.8468650e-005  1.5794398e-002 
 0.0000000e+000  2.6984873e-001  1.0000000e+000  1.0251247e-004  5.0882865e-003  0.0000000e+000 -1.0251247e-004  1.0176573e-002 
 0.0000000e+000  3.2820630e-001  1.0000000e+000  9.1100686e-005  3.1863486e-003  0.0000000e+000 -9.1100686e-005  6.3726972e-003 
 0.0000000e+000  3.9239961e-001  1.0000000e+000  7.5423799e-005  1.7642046e-003  0.0000000e+000 -7.5423799e-005  3.5284092e-003 
 0.0000000e+000  4.6301234e-001  1.0000000e+000  6.8049689e-005  5.6708459e-004  0.0000000e+000 -6.8049689e-005  1.1341692e-003 
 0.0000000e+000  5.3700137e-001  1.0000000e+000  6.8042362e-005 -5.6724873e-004  0.0000000e+000 -6.8042362e-005  1.1344975e-003 
 0.0000000e+000  6.0763693e-001  1.0000000e+000  7.5393909e-005 -1.7647326e-003  0.0000000e+000 -7.5393909e-005  3.5294655e-003 
 0.0000000e+000  6.7184472e-001  1.0000000e+000  9.0941838e-005 -3.1875107e-003  0.0000000e+000 -9.0941838e-005  6.3750213e-003 
 0.0000000e+000  7.3020971e-001  1.0000000e+000  1.0244544e-004 -5.0903796e-003  0.0000000e+000 -1.0244544e-004  1.0180759e-002 
 0.0000000e+000  7.8326333e-001  1.0000000e+000  5.8651618e-005 -7.9009570e-003  0.0000000e+000 -5.8651618e-005  1.5801914e-002 
 0.0000000e+000  8.3148909e-001  1.0000000e+000  1.0818877e-004 -1.2721837e-002  0.0000000e+000 -1.0818877e-004  2.5443673e-002 
 0.0000000e+000  8.7532640e-001  1.0000000e+000  2.2457370e-003 -2.3337303e-002  0.0000000e+000 -2.2457370e-003  4.6674605e-002 
 0.0000000e+000  9.1517437e-001  1.0000000e+000  1.8738803e-002 -5.4581601e-002  0.0000000e+000 -1.8738803e-002  1.0916320e-001 
 0.0000000e+000  9.5139623e-001  1.0000000e+000  7.2649650e-002 -1.3653670e-001  0.0000000e+000 -7.2649650e-002  2.7307341e-001 
 0.0000000e+000  9.8432189e-001  1.0000000e+000 -1.1537774e-001 -2.0288667e-001  0.0000000e+000  1.1537774e-001 -4.0577334e-001 
 0.0000000e+000  1.0000000e+000  1.0000000e+000 -1.1537774e-001 -2.0288667e-001  0.0000000e+000  1.1537774e-001 -4.0577334e-001 
Zone i=1, j=22, k=2
 2.0000000e+001  0.0000000e+000  0.0000000e+000  0.0000000e+000  0.0000000e+000  0.0000000e+000  0.0000000e+000  1.1753925e-001 
 2.0000000e+001  1.5686335e-002  0.0000000e+000  0.0000000e+000  0.0000000e+000  0.0000000e+000  0.0000000e+000  1.1753925e-001 
 2.0000000e+001  4.8627645e-002  0.0000000e+000  0.0000000e+000  0.0000000e+000  0.0000000e+000  0.0000000e+000  1.0786869e-001 
 2.0000000e+001  8.4863111e-002  0.0000000e+000  0.0000000e+000  0.0000000e+000  0.0000000e+000  0.0000000e+000  9.9173583e-002 
 2.0000000e+001  1.2472210e-001  0.0000000e+000  0.0000000e+000  0.0000000e+000  0.0000000e+000  0.0000000e+000  8.9609213e-002 
 2.0000000e+001  1.6856700e-001  0.0000000e+000  0.0000000e+000  0.0000000e+000  0.0000000e+000  0.0000000e+000  7.9088092e-002 
 2.0000000e+001  2.1679640e-001  0.0000000e+000  0.0000000e+000  0.0000000e+000  0.0000000e+000  0.0000000e+000  6.7515194e-002 
 2.0000000e+001  2.6984873e-001  0.0000000e+000  0.0000000e+000  0.0000000e+000  0.0000000e+000  0.0000000e+000  5.4784760e-002 
 2.0000000e+001  3.2820630e-001  0.0000000e+000  0.0000000e+000  0.0000000e+000  0.0000000e+000  0.0000000e+000  4.0781494e-002 
 2.0000000e+001  3.9239961e-001  0.0000000e+000  0.0000000e+000  0.0000000e+000  0.0000000e+000  0.0000000e+000  2.5377771e-002 
 2.0000000e+001  4.6301234e-001  0.0000000e+000  0.0000000e+000  0.0000000e+000  0.0000000e+000  0.0000000e+000  8.4337145e-003 
 2.0000000e+001  5.3700137e-001  0.0000000e+000  0.0000000e+000  0.0000000e+000  0.0000000e+000  0.0000000e+000  8.4363939e-003 
 2.0000000e+001  6.0763693e-001  0.0000000e+000  0.0000000e+000  0.0000000e+000  0.0000000e+000  0.0000000e+000  2.5386088e-002 
 2.0000000e+001  6.7184472e-001  0.0000000e+000  0.0000000e+000  0.0000000e+000  0.0000000e+000  0.0000000e+000  4.0793367e-002 
 2.0000000e+001  7.3020971e-001  0.0000000e+000  0.0000000e+000  0.0000000e+000  0.0000000e+000  0.0000000e+000  5.4798644e-002 
 2.0000000e+001  7.8326333e-001  0.0000000e+000  0.0000000e+000  0.0000000e+000  0.0000000e+000  0.0000000e+000  6.7529447e-002 
 2.0000000e+001  8.3148909e-001  0.0000000e+000  0.0000000e+000  0.0000000e+000  0.0000000e+000  0.0000000e+000  7.9101533e-002 
 2.0000000e+001  8.7532640e-001  0.0000000e+000  0.0000000e+000  0.0000000e+000  0.0000000e+000  0.0000000e+000  8.9620963e-002 
 2.0000000e+001  9.1517437e-001  0.0000000e+000  0.0000000e+000  0.0000000e+000  0.0000000e+000  0.0000000e+000  9.9182874e-002 
 2.0000000e+001  9.5139623e-001  0.0000000e+000  0.0000000e+000  0.0000000e+000  0.0000000e+000  0.0000000e+000  1.0787480e-001 
 2.0000000e+001  9.8432189e-001  0.0000000e+000  0.0000000e+000  0.0000000e+000  0.0000000e+000  0.0000000e+000  1.1754923e-001 
 2.0000000e+001  1.0000000e+000  0.0000000e+000  0.0000000e+000  0.0000000e+000  0.0000000e+000  0.0000000e+000  1.1754923e-001 
 2.0000000e+001  0.0000000e+000  1.0000000e+000 -1.7533698e-009 -5.8769625e-002  0.0000000e+000 -5.8769625e-002  1.1753925e-001 
 2.0000000e+001  1.5686335e-002  1.0000000e+000 -1.7533698e-009 -5.8769625e-002  0.0000000e+000 -5.8769607e-002  1.1753925e-001 
 2.0000000e+001  4.8627645e-002  1.0000000e+000 -2.5858748e-009 -5.3934347e-002  0.0000000e+000 -5.3934187e-002  1.0786869e-001 
 2.0000000e+001  8.4863111e-002  1.0000000e+000 -2.7670164e-009 -4.9586792e-002  0.0000000e+000 -4.9586345e-002  9.9173583e-002 
 2.0000000e+001  1.2472210e-001  1.0000000e+000 -3.0481153e-009 -4.4804607e-002  0.0000000e+000 -4.4803735e-002  8.9609213e-002 
 2.0000000e+001  1.6856700e-001  1.0000000e+000 -4.3006536e-009 -3.9544046e-002  0.0000000e+000 -3.9542641e-002  7.9088092e-002 
 2.0000000e+001  2.1679640e-001  1.0000000e+000 -2.1289159e-009 -3.3757597e-002  0.0000000e+000 -3.3755614e-002  6.7515194e-002 
 2.0000000e+001  2.6984873e-001  1.0000000e+000 -1.3144094e-009 -2.7392378e-002  0.0000000e+000 -2.7389885e-002  5.4784760e-002 
 2.0000000e+001  3.2820630e-001  1.0000000e+000 -3.9277115e-010 -2.0390747e-002  0.0000000e+000 -2.0388002e-002  4.0781494e-002 
 2.0000000e+001  3.9239961e-001  1.0000000e+000  2.7060831e-009 -1.2688885e-002  0.0000000e+000 -1.2686443e-002  2.5377771e-002 
 2.0000000e+001  4.6301234e-001  1.0000000e+000  3.2353289e-009 -4.2168577e-003  0.0000000e+000 -4.2157282e-003  8.4337145e-003 
 2.0000000e+001  5.3700137e-001  1.0000000e+000  2.8544267e-009  4.2181965e-003  0.0000000e+000  4.2166767e-003  8.4363939e-003 
 2.0000000e+001  6.0763693e-001  1.0000000e+000  2.5002320e-009  1.2693044e-002  0.0000000e+000  1.2687190e-002  2.5386088e-002 
 2.0000000e+001  6.7184472e-001  1.0000000e+000 -1.0259500e-009  2.0396683e-002  0.0000000e+000  2.0385185e-002  4.0793367e-002 
 2.0000000e+001  7.3020971e-001  1.0000000e+000 -1.0674074e-009  2.7399322e-002  0.0000000e+000  2.7381078e-002  5.4798644e-002 
 2.0000000e+001  7.8326333e-001  1.0000000e+000 -4.2028589e-009  3.3764724e-002  0.0000000e+000  3.3738860e-002  6.7529447e-002 
 2.0000000e+001  8.3148909e-001  1.0000000e+000 -1.2846472e-009  3.9550766e-002  0.0000000e+000  3.9516630e-002  7.9101533e-002 
 2.0000000e+001  8.7532640e-001  1.0000000e+000 -3.0927145e-009  4.4810481e-002  0.0000000e+000  4.4767626e-002  8.9620963e-002 
 2.0000000e+001  9.1517437e-001  1.0000000e+000 -3.1054821e-009  4.9591437e-002  0.0000000e+000  4.9539600e-002  9.9182874e-002 
 2.0000000e+001  9.5139623e-001  1.0000000e+000 -2.3127600e-009  5.3937402e-002  0.0000000e+000  5.3876478e-002  1.0787480e-001 
 2.0000000e+001  9.8432189e-001  1.0000000e+000 -1.1030202e-009  5.8774617e-002  0.0000000e+000  5.8703563e-002  1.1754923e-001 
 2.0000000e+001  1.0000000e+000  1.0000000e+000 -1.1030202e-009  5.8774617e-002  0.0000000e+000  5.8701286e-002  1.1754923e-001 
Zone i=62, j=1, k=2
 0.0000000e+000  0.0000000e+000  0.0000000e+000  0.0000000e+000  0.0000000e+000  0.0000000e+000  0.0000000e+000  1.5442667e+000 
 1.2291715e-002  0.0000000e+000  0.0000000e+000  0.0000000e+000  0.0000000e+000  0.0000000e+000  0.0000000e+000  1.5442667e+000 
 3.7736509e-002  0.0000000e+000  0.0000000e+000  0.0000000e+000  0.0000000e+000  0.0000000e+000  0.0000000e+000  1.2503591e+000 
 6.4963534e-002  0.0000000e+000  0.0000000e+000  0.0000000e+000  0.0000000e+000  0.0000000e+000  0.0000000e+000  9.4871235e-001 
 9.4095588e-002  0.0000000e+000  0.0000000e+000  0.0000000e+000  0.0000000e+000  0.0000000e+000  0.0000000e+000  7.0647806e-001 
 1.2526625e-001  0.0000000e+000  0.0000000e+000  0.0000000e+000  0.0000000e+000  0.0000000e+000  0.0000000e+000  5.3862876e-001 
 1.5861896e-001  0.0000000e+000  0.0000000e+000  0.0000000e+000  0.0000000e+000  0.0000000e+000  0.0000000e+000  4.3024418e-001 
 1.9430619e-001  0.0000000e+000  0.0000000e+000  0.0000000e+000  0.0000000e+000  0.0000000e+000  0.0000000e+000  3.6155909e-001 
 2.3249130e-001  0.0000000e+000  0.0000000e+000  0.0000000e+000  0.0000000e+000  0.0000000e+000  0.0000000e+000  3.1666318e-001 
 2.7334976e-001  0.0000000e+000  0.0000000e+000  0.0000000e+000  0.0000000e+000  0.0000000e+000  0.0000000e+000  2.8509146e-001 
 3.1706923e-001  0.0000000e+000  0.0000000e+000  0.0000000e+000  0.0000000e+000  0.0000000e+000  0.0000000e+000  2.6107359e-001 
 3.6384889e-001  0.0000000e+000  0.0000000e+000  0.0000000e+000  0.0000000e+000  0.0000000e+000  0.0000000e+000  2.4175976e-001 
 4.1390228e-001  0.0000000e+000  0.0000000e+000  0.0000000e+000  0.0000000e+000  0.0000000e+000  0.0000000e+000  2.2581485e-001 
 4.6745992e-001  0.0000000e+000  0.0000000e+000  0.0000000e+000  0.0000000e+000  0.0000000e+000  0.0000000e+000  2.1251301e-001 
 5.2476656e-001  0.0000000e+000  0.0000000e+000  0.0000000e+000  0.0000000e+000  0.0000000e+000  0.0000000e+000  2.0133266e-001 
 5.8608472e-001  0.0000000e+000  0.0000000e+000  0.0000000e+000  0.0000000e+000  0.0000000e+000  0.0000000e+000  1.9187051e-001 
 6.5169525e-001  0.0000000e+000  0.0000000e+000  0.0000000e+000  0.0000000e+000  0.0000000e+000  0.0000000e+000  1.8381502e-001 
 7.2189790e-001  0.0000000e+000  0.0000000e+000  0.0000000e+000  0.0000000e+000  0.0000000e+000  0.0000000e+000  1.7690764e-001 
 7.9701531e-001  0.0000000e+000  0.0000000e+000  0.0000000e+000  0.0000000e+000  0.0000000e+000  0.0000000e+000  1.7093307e-001 
 8.7739104e-001  0.0000000e+000  0.0000000e+000  0.0000000e+000  0.0000000e+000  0.0000000e+000  0.0000000e+000  1.6571961e-001 
 9.6339333e-001  0.0000000e+000  0.0000000e+000  0.0000000e+000  0.0000000e+000  0.0000000e+000  0.0000000e+000  1.6112703e-001 
 1.0554160e+000  0.0000000e+000  0.0000000e+000  0.0000000e+000  0.0000000e+000  0.0000000e+000  0.0000000e+000  1.5704530e-001 
 1.1538795e+000  0.0000000e+000  0.0000000e+000  0.0000000e+000  0.0000000e+000  0.0000000e+000  0.0000000e+000  1.5337539e-001 
 1.2592361e+000  0.0000000e+000  0.0000000e+000  0.0000000e+000  0.0000000e+000  0.0000000e+000  0.0000000e+000  1.5004268e-001 
 1.3719671e+000  0.0000000e+000  0.0000000e+000  0.0000000e+000  0.0000000e+000  0.0000000e+000  0.0000000e+000  1.4699779e-001 
 1.4925885e+000  0.0000000e+000  0.0000000e+000  0.0000000e+000  0.0000000e+000  0.0000000e+000  0.0000000e+000  1.4419912e-001 
 1.6216545e+000  0.0000000e+000  0.0000000e+000  0.0000000e+000  0.0000000e+000  0.0000000e+000  0.0000000e+000  1.4161660e-001 
 1.7597550e+000  0.0000000e+000  0.0000000e+000  0.0000000e+000  0.0000000e+000  0.0000000e+000  0.0000000e+000  1.3922854e-001 
 1.9075224e+000  0.0000000e+000  0.0000000e+000  0.0000000e+000  0.0000000e+000  0.0000000e+000  0.0000000e+000  1.3701761e-001 
 2.0656340e+000  0.0000000e+000  0.0000000e+000  0.0000000e+000  0.0000000e+000  0.0000000e+000  0.0000000e+000  1.3497107e-001 
 2.2348135e+000  0.0000000e+000  0.0000000e+000  0.0000000e+000  0.0000000e+000  0.0000000e+000  0.0000000e+000  1.3308012e-001 
 2.4158354e+000  0.0000000e+000  0.0000000e+000  0.0000000e+000  0.0000000e+000  0.0000000e+000  0.0000000e+000  1.3133794e-001 
 2.6095285e+000  0.0000000e+000  0.0000000e+000  0.0000000e+000  0.0000000e+000  0.0000000e+000  0.0000000e+000  1.2973921e-001 
 2.8167806e+000  0.0000000e+000  0.0000000e+000  0.0000000e+000  0.0000000e+000  0.0000000e+000  0.0000000e+000  1.2827997e-001 
 3.0385399e+000  0.0000000e+000  0.0000000e+000  0.0000000e+000  0.0000000e+000  0.0000000e+000  0.0000000e+000  1.2695682e-001 
 3.2758224e+000  0.0000000e+000  0.0000000e+000  0.0000000e+000  0.0000000e+000  0.0000000e+000  0.0000000e+000  1.2576595e-001 
 3.5297146e+000  0.0000000e+000  0.0000000e+000  0.0000000e+000  0.0000000e+000  0.0000000e+000  0.0000000e+000  1.2470452e-001 
 3.8013785e+000  0.0000000e+000  0.0000000e+000  0.0000000e+000  0.0000000e+000  0.0000000e+000  0.0000000e+000  1.2376809e-001 
 4.0920601e+000  0.0000000e+000  0.0000000e+000  0.0000000e+000  0.0000000e+000  0.0000000e+000  0.0000000e+000  1.2295119e-001 
 4.4030900e+000  0.0000000e+000  0.0000000e+000  0.0000000e+000  0.0000000e+000  0.0000000e+000  0.0000000e+000  1.2224792e-001 
 4.7358913e+000  0.0000000e+000  0.0000000e+000  0.0000000e+000  0.0000000e+000  0.0000000e+000  0.0000000e+000  1.2165118e-001 
 5.0919890e+000  0.0000000e+000  0.0000000e+000  0.0000000e+000  0.0000000e+000  0.0000000e+000  0.0000000e+000  1.2115271e-001 
 5.4730139e+000  0.0000000e+000  0.0000000e+000  0.0000000e+000  0.0000000e+000  0.0000000e+000  0.0000000e+000  1.2074325e-001 
 5.8807087e+000  0.0000000e+000  0.0000000e+000  0.0000000e+000  0.0000000e+000  0.0000000e+000  0.0000000e+000  1.2041304e-001 
 6.3169422e+000  0.0000000e+000  0.0000000e+000  0.0000000e+000  0.0000000e+000  0.0000000e+000  0.0000000e+000  1.2015183e-001 
 6.7837143e+000  0.0000000e+000  0.0000000e+000  0.0000000e+000  0.0000000e+000  0.0000000e+000  0.0000000e+000  1.1994942e-001 
 7.2831593e+000  0.0000000e+000  0.0000000e+000  0.0000000e+000  0.0000000e+000  0.0000000e+000  0.0000000e+000  1.1979610e-001 
 7.8175659e+000  0.0000000e+000  0.0000000e+000  0.0000000e+000  0.0000000e+000  0.0000000e+000  0.0000000e+000  1.1968260e-001 
 8.3893795e+000  0.0000000e+000  0.0000000e+000  0.0000000e+000  0.0000000e+000  0.0000000e+000  0.0000000e+000  1.1960061e-001 
 9.0012217e+000  0.0000000e+000  0.0000000e+000  0.0000000e+000  0.0000000e+000  0.0000000e+000  0.0000000e+000  1.1954308e-001 
 9.6558924e+000  0.0000000e+000  0.0000000e+000  0.0000000e+000  0.0000000e+000  0.0000000e+000  0.0000000e+000  1.1950364e-001 
 1.0356388e+001  0.0000000e+000  0.0000000e+000  0.0000000e+000  0.0000000e+000  0.0000000e+000  0.0000000e+000  1.1947750e-001 
 1.1105920e+001  0.0000000e+000  0.0000000e+000  0.0000000e+000  0.0000000e+000  0.0000000e+000  0.0000000e+000  1.1946063e-001 
 1.1907920e+001  0.0000000e+000  0.0000000e+000  0.0000000e+000  0.0000000e+000  0.0000000e+000  0.0000000e+000  1.1945026e-001 
 1.2766060e+001  0.0000000e+000  0.0000000e+000  0.0000000e+000  0.0000000e+000  0.0000000e+000  0.0000000e+000  1.1944409e-001 
 1.3684270e+001  0.0000000e+000  0.0000000e+000  0.0000000e+000  8.1735609e-039  0.0000000e+000  8.1735609e-039  1.1944032e-001 
 1.4666756e+001  0.0000000e+000  0.0000000e+000  0.0000000e+000  0.0000000e+000  0.0000000e+000  0.0000000e+000  1.1943831e-001 
 1.5718015e+001  0.0000000e+000  0.0000000e+000  0.0000000e+000  0.0000000e+000  0.0000000e+000  0.0000000e+000  1.1943715e-001 
 1.6842865e+001  0.0000000e+000  0.0000000e+000  0.0000000e+000  0.0000000e+000  0.0000000e+000  0.0000000e+000  1.1943661e-001 
 1.8046452e+001  0.0000000e+000  0.0000000e+000  0.0000000e+000  0.0000000e+000  0.0000000e+000  0.0000000e+000  1.1943636e-001 
 1.9334295e+001  0.0000000e+000  0.0000000e+000  0.0000000e+000  0.0000000e+000  0.0000000e+000  0.0000000e+000  1.1943625e-001 
 2.0000000e+001  0.0000000e+000  0.0000000e+000  0.0000000e+000  0.0000000e+000  0.0000000e+000  0.0000000e+000  1.1943625e-001 
 0.0000000e+000  0.0000000e+000  1.0000000e+000  7.7213341e-001  3.2170513e-001  0.0000000e+000  0.0000000e+000  1.5442667e+000 
 1.2291715e-002  0.0000000e+000  1.0000000e+000  7.7213341e-001  3.2170513e-001  0.0000000e+000  3.2170513e-001  1.5442667e+000 
 3.7736509e-002  0.0000000e+000  1.0000000e+000  6.2517953e-001  2.5863087e-001  0.0000000e+000  2.5863087e-001  1.2503591e+000 
 6.4963534e-002  0.0000000e+000  1.0000000e+000  4.7435614e-001  1.5393299e-001  0.0000000e+000  1.5393299e-001  9.4871235e-001 
 9.4095588e-002  0.0000000e+000  1.0000000e+000  3.5323903e-001  7.3383801e-002  0.0000000e+000  7.3383801e-002  7.0647806e-001 
 1.2526625e-001  0.0000000e+000  1.0000000e+000  2.6931438e-001  2.6733616e-002  0.0000000e+000  2.6733616e-002  5.3862876e-001 
 1.5861896e-001  0.0000000e+000  1.0000000e+000  2.1512209e-001  4.2054341e-003  0.0000000e+000  4.2054341e-003  4.3024418e-001 
 1.9430619e-001  0.0000000e+000  1.0000000e+000  1.8077956e-001 -4.1476125e-003  0.0000000e+000 -4.1476125e-003  3.6155909e-001 
 2.3249130e-001  0.0000000e+000  1.0000000e+000  1.5833159e-001 -5.7499288e-003  0.0000000e+000 -5.7499288e-003  3.1666318e-001 
 2.7334976e-001  0.0000000e+000  1.0000000e+000  1.4254571e-001 -4.9609924e-003  0.0000000e+000 -4.9609924e-003  2.8509146e-001 
 3.1706923e-001  0.0000000e+000  1.0000000e+000  1.3053681e-001 -3.7360180e-003  0.0000000e+000 -3.7360180e-003  2.6107359e-001 
 3.6384889e-001  0.0000000e+000  1.0000000e+000  1.2087989e-001 -2.7215632e-003  0.0000000e+000 -2.7215632e-003  2.4175976e-001 
 4.1390228e-001  0.0000000e+000  1.0000000e+000  1.1290742e-001 -2.0073354e-003  0.0000000e+000 -2.0073354e-003  2.2581485e-001 
 4.6745992e-001  0.0000000e+000  1.0000000e+000  1.0625651e-001 -1.5071314e-003  0.0000000e+000 -1.5071314e-003  2.1251301e-001 
 5.2476656e-001  0.0000000e+000  1.0000000e+000  1.0066632e-001 -1.1497287e-003  0.0000000e+000 -1.1497287e-003  2.0133266e-001 
 5.8608472e-001  0.0000000e+000  1.0000000e+000  9.5935255e-002 -8.8721543e-004  0.0000000e+000 -8.8721543e-004  1.9187051e-001 
 6.5169525e-001  0.0000000e+000  1.0000000e+000  9.1907516e-002 -6.9224433e-004  0.0000000e+000 -6.9224433e-004  1.8381502e-001 
 7.2189790e-001  0.0000000e+000  1.0000000e+000  8.8453822e-002 -5.4276024e-004  0.0000000e+000 -5.4276024e-004  1.7690764e-001 
 7.9701531e-001  0.0000000e+000  1.0000000e+000  8.5466534e-002 -4.2880533e-004  0.0000000e+000 -4.2880533e-004  1.7093307e-001 
 8.7739104e-001  0.0000000e+000  1.0000000e+000  8.2859807e-002 -3.4059142e-004  0.0000000e+000 -3.4059142e-004  1.6571961e-001 
 9.6339333e-001  0.0000000e+000  1.0000000e+000  8.0563508e-002 -2.7246997e-004  0.0000000e+000 -2.7246997e-004  1.6112703e-001 
 1.0554160e+000  0.0000000e+000  1.0000000e+000  7.8522652e-002 -2.1985009e-004  0.0000000e+000 -2.1985009e-004  1.5704530e-001 
 1.1538795e+000  0.0000000e+000  1.0000000e+000  7.6687701e-002 -1.7789318e-004  0.0000000e+000 -1.7789318e-004  1.5337539e-001 
 1.2592361e+000  0.0000000e+000  1.0000000e+000  7.5021341e-002 -1.4596181e-004  0.0000000e+000 -1.4596181e-004  1.5004268e-001 
 1.3719671e+000  0.0000000e+000  1.0000000e+000  7.3498897e-002 -1.2050452e-004  0.0000000e+000 -1.2050452e-004  1.4699779e-001 
 1.4925885e+000  0.0000000e+000  1.0000000e+000  7.2099552e-002 -1.0019895e-004  0.0000000e+000 -1.0019895e-004  1.4419912e-001 
 1.6216545e+000  0.0000000e+000  1.0000000e+000  7.0808299e-002 -8.3951636e-005  0.0000000e+000 -8.3951636e-005  1.4161660e-001 
 1.7597550e+000  0.0000000e+000  1.0000000e+000  6.9614269e-002 -7.0781796e-005  0.0000000e+000 -7.0781796e-005  1.3922854e-001 
 1.9075224e+000  0.0000000e+000  1.0000000e+000  6.8508811e-002 -5.9720718e-005  0.0000000e+000 -5.9720718e-005  1.3701761e-001 
 2.0656340e+000  0.0000000e+000  1.0000000e+000  6.7485526e-002 -5.0374467e-005  0.0000000e+000 -5.0374467e-005  1.3497107e-001 
 2.2348135e+000  0.0000000e+000  1.0000000e+000  6.6540062e-002 -4.2775078e-005  0.0000000e+000 -4.2775078e-005  1.3308012e-001 
 2.4158354e+000  0.0000000e+000  1.0000000e+000  6.5668963e-002 -3.6134123e-005  0.0000000e+000 -3.6134123e-005  1.3133794e-001 
 2.6095285e+000  0.0000000e+000  1.0000000e+000  6.4869605e-002 -3.0594336e-005  0.0000000e+000 -3.0594336e-005  1.2973921e-001 
 2.8167806e+000  0.0000000e+000  1.0000000e+000  6.4139985e-002 -2.5392013e-005  0.0000000e+000 -2.5392013e-005  1.2827997e-001 
 3.0385399e+000  0.0000000e+000  1.0000000e+000  6.3478418e-002 -2.1485203e-005  0.0000000e+000 -2.1485203e-005  1.2695682e-001 
 3.2758224e+000  0.0000000e+000  1.0000000e+000  6.2882982e-002 -1.7740642e-005  0.0000000e+000 -1.7740642e-005  1.2576595e-001 
 3.5297146e+000  0.0000000e+000  1.0000000e+000  6.2352259e-002 -1.4554795e-005  0.0000000e+000 -1.4554795e-005  1.2470452e-001 
 3.8013785e+000  0.0000000e+000  1.0000000e+000  6.1884046e-002 -1.1731908e-005  0.0000000e+000 -1.1731908e-005  1.2376809e-001 
 4.0920601e+000  0.0000000e+000  1.0000000e+000  6.1475597e-002 -9.5544947e-006  0.0000000e+000 -9.5544947e-006  1.2295119e-001 
 4.4030900e+000  0.0000000e+000  1.0000000e+000  6.1123956e-002 -7.5821849e-006  0.0000000e+000 -7.5821849e-006  1.2224792e-001 
 4.7358913e+000  0.0000000e+000  1.0000000e+000  6.0825590e-002 -5.8491619e-006  0.0000000e+000 -5.8491619e-006  1.2165118e-001 
 5.0919890e+000  0.0000000e+000  1.0000000e+000  6.0576357e-002 -4.5947131e-006  0.0000000e+000 -4.5947131e-006  1.2115271e-001 
 5.4730139e+000  0.0000000e+000  1.0000000e+000  6.0371626e-002 -3.3359624e-006  0.0000000e+000 -3.3359624e-006  1.2074325e-001 
 5.8807087e+000  0.0000000e+000  1.0000000e+000  6.0206518e-002 -2.6121179e-006  0.0000000e+000 -2.6121179e-006  1.2041304e-001 
 6.3169422e+000  0.0000000e+000  1.0000000e+000  6.0075913e-002 -1.9454199e-006  0.0000000e+000 -1.9454199e-006  1.2015183e-001 
 6.7837143e+000  0.0000000e+000  1.0000000e+000  5.9974711e-002 -1.4347114e-006  0.0000000e+000 -1.4347114e-006  1.1994942e-001 
 7.2831593e+000  0.0000000e+000  1.0000000e+000  5.9898045e-002 -9.7411043e-007  0.0000000e+000 -9.7411043e-007  1.1979610e-001 
 7.8175659e+000  0.0000000e+000  1.0000000e+000  5.9841301e-002 -6.1448679e-007  0.0000000e+000 -6.1448679e-007  1.1968260e-001 
 8.3893795e+000  0.0000000e+000  1.0000000e+000  5.9800301e-002 -3.9047109e-007  0.0000000e+000 -3.9047109e-007  1.1960061e-001 
 9.0012217e+000  0.0000000e+000  1.0000000e+000  5.9771542e-002 -2.4977385e-007  0.0000000e+000 -2.4977385e-007  1.1954308e-001 
 9.6558924e+000  0.0000000e+000  1.0000000e+000  5.9751824e-002 -1.1179516e-007  0.0000000e+000 -1.1179516e-007  1.1950364e-001 
 1.0356388e+001  0.0000000e+000  1.0000000e+000  5.9738752e-002 -1.1219100e-007  0.0000000e+000 -1.1219100e-007  1.1947750e-001 
 1.1105920e+001  0.0000000e+000  1.0000000e+000  5.9730317e-002 -7.6170096e-008  0.0000000e+000 -7.6170096e-008  1.1946063e-001 
 1.1907920e+001  0.0000000e+000  1.0000000e+000  5.9725128e-002 -2.1436435e-008  0.0000000e+000 -2.1436435e-008  1.1945026e-001 
 1.2766060e+001  0.0000000e+000  1.0000000e+000  5.9722047e-002  6.2127032e-009  0.0000000e+000  6.2127032e-009  1.1944409e-001 
 1.3684270e+001  0.0000000e+000  1.0000000e+000  5.9720162e-002  7.5413009e-009  0.0000000e+000  7.5413009e-009  1.1944032e-001 
 1.4666756e+001  0.0000000e+000  1.0000000e+000  5.9719156e-002 -6.3736207e-009  0.0000000e+000 -6.3736207e-009  1.1943831e-001 
 1.5718015e+001  0.0000000e+000  1.0000000e+000  5.9718572e-002  1.1815875e-008  0.0000000e+000  1.1815875e-008  1.1943715e-001 
 1.6842865e+001  0.0000000e+000  1.0000000e+000  5.9718300e-002 -5.4253690e-009  0.0000000e+000 -5.4253690e-009  1.1943661e-001 
 1.8046452e+001  0.0000000e+000  1.0000000e+000  5.9718184e-002 -2.1870392e-010  0.0000000e+000 -2.1870392e-010  1.1943636e-001 
 1.9334295e+001  0.0000000e+000  1.0000000e+000  5.9718125e-002 -5.1104916e-008  0.0000000e+000 -5.1104916e-008  1.1943625e-001 
 2.0000000e+001  0.0000000e+000  1.0000000e+000  5.9718125e-002 -5.1104916e-008  0.0000000e+000 -5.1104916e-008  1.1943625e-001 
Zone i=62, j=1, k=2
 0.0000000e+000  1.0000000e+000  0.0000000e+000  0.0000000e+000  0.0000000e+000  0.0000000e+000  0.0000000e+000  1.5449086e+000 
 1.2291715e-002  1.0000000e+000  0.0000000e+000  0.0000000e+000  0.0000000e+000  0.0000000e+000  0.0000000e+000  1.5449086e+000 
 3.7736509e-002  1.0000000e+000  0.0000000e+000  0.0000000e+000  0.0000000e+000  0.0000000e+000  0.0000000e+000  1.2506500e+000 
 6.4963534e-002  1.0000000e+000  0.0000000e+000  0.0000000e+000  0.0000000e+000  0.0000000e+000  0.0000000e+000  9.4875842e-001 
 9.4095588e-002  1.0000000e+000  0.0000000e+000  0.0000000e+000  0.0000000e+000  0.0000000e+000  0.0000000e+000  7.0641172e-001 
 1.2526625e-001  1.0000000e+000  0.0000000e+000  0.0000000e+000  0.0000000e+000  0.0000000e+000  0.0000000e+000  5.3855306e-001 
 1.5861896e-001  1.0000000e+000  0.0000000e+000  0.0000000e+000  0.0000000e+000  0.0000000e+000  0.0000000e+000  4.3019930e-001 
 1.9430619e-001  1.0000000e+000  0.0000000e+000  0.0000000e+000  0.0000000e+000  0.0000000e+000  0.0000000e+000  3.6154419e-001 
 2.3249130e-001  1.0000000e+000  0.0000000e+000  0.0000000e+000  0.0000000e+000  0.0000000e+000  0.0000000e+000  3.1666541e-001 
 2.7334976e-001  1.0000000e+000  0.0000000e+000  0.0000000e+000  0.0000000e+000  0.0000000e+000  0.0000000e+000  2.8509971e-001 
 3.1706923e-001  1.0000000e+000  0.0000000e+000  0.0000000e+000  0.0000000e+000  0.0000000e+000  0.0000000e+000  2.6108193e-001 
 3.6384889e-001  1.0000000e+000  0.0000000e+000  0.0000000e+000  0.0000000e+000  0.0000000e+000  0.0000000e+000  2.4176653e-001 
 4.1390228e-001  1.0000000e+000  0.0000000e+000  0.0000000e+000  0.0000000e+000  0.0000000e+000  0.0000000e+000  2.2581992e-001 
 4.6745992e-001  1.0000000e+000  0.0000000e+000  0.0000000e+000  0.0000000e+000  0.0000000e+000  0.0000000e+000  2.1251722e-001 
 5.2476656e-001  1.0000000e+000  0.0000000e+000  0.0000000e+000  0.0000000e+000  0.0000000e+000  0.0000000e+000  2.0133586e-001 
 5.8608472e-001  1.0000000e+000  0.0000000e+000  0.0000000e+000  0.0000000e+000  0.0000000e+000  0.0000000e+000  1.9187306e-001 
 6.5169525e-001  1.0000000e+000  0.0000000e+000  0.0000000e+000  0.0000000e+000  0.0000000e+000  0.0000000e+000  1.8381688e-001 
 7.2189790e-001  1.0000000e+000  0.0000000e+000  0.0000000e+000  0.0000000e+000  0.0000000e+000  0.0000000e+000  1.7690913e-001 
 7.9701531e-001  1.0000000e+000  0.0000000e+000  0.0000000e+000  0.0000000e+000  0.0000000e+000  0.0000000e+000  1.7093426e-001 