Variables = "x","y","z", "Shear Stress_x", "Shear Stress_y", "Shear Stress_z", "Shear Stress_circ", "Skin Friction"
Zone i=1, j=62, k=2
 0.0000000e+000  0.0000000e+000  0.0000000e+000  0.0000000e+000  0.0000000e+000  0.0000000e+000  0.0000000e+000  1.1958078e+000 
 1.2291715e-002  0.0000000e+000  0.0000000e+000  7.0064923e-045  2.0290802e-042  0.0000000e+000  2.0290802e-042  1.1137526e+000 
 3.7736509e-002  0.0000000e+000  0.0000000e+000  0.0000000e+000  0.0000000e+000  0.0000000e+000  0.0000000e+000  9.4389194e-001 
 6.4963534e-002  0.0000000e+000  0.0000000e+000  7.0064923e-045  2.0290802e-042  0.0000000e+000  2.0290802e-042  7.1199191e-001 
 9.4095588e-002  0.0000000e+000  0.0000000e+000  0.0000000e+000  0.0000000e+000  0.0000000e+000  0.0000000e+000  5.2375996e-001 
 1.2526625e-001  0.0000000e+000  0.0000000e+000  7.0064923e-045  2.0290802e-042  0.0000000e+000  2.0290802e-042  3.9587447e-001 
 1.5861896e-001  0.0000000e+000  0.0000000e+000  0.0000000e+000  0.0000000e+000  0.0000000e+000  0.0000000e+000  3.1439704e-001 
 1.9430619e-001  0.0000000e+000  0.0000000e+000  7.0064923e-045  2.0290802e-042  0.0000000e+000  2.0290802e-042  2.6342550e-001 
 2.3249130e-001  0.0000000e+000  0.0000000e+000  0.0000000e+000  0.0000000e+000  0.0000000e+000  0.0000000e+000  2.3088536e-001 
 2.7334976e-001  0.0000000e+000  0.0000000e+000  7.0064923e-045  2.0290802e-042  0.0000000e+000  2.0290802e-042  2.0869750e-001 
 3.1706923e-001  0.0000000e+000  0.0000000e+000  0.0000000e+000  0.0000000e+000  0.0000000e+000  0.0000000e+000  1.9210492e-001 
 3.6384889e-001  0.0000000e+000  0.0000000e+000  7.0064923e-045  2.0290802e-042  0.0000000e+000  2.0290802e-042  1.7870858e-001 
 4.1390228e-001  0.0000000e+000  0.0000000e+000  0.0000000e+000  0.0000000e+000  0.0000000e+000  0.0000000e+000  1.6745186e-001 
 4.6745992e-001  0.0000000e+000  0.0000000e+000  7.0064923e-045  2.0290802e-042  0.0000000e+000  2.0290802e-042  1.5786280e-001 
 5.2476656e-001  0.0000000e+000  0.0000000e+000  0.0000000e+000  0.0000000e+000  0.0000000e+000  0.0000000e+000  1.4965971e-001 
 5.8608472e-001  0.0000000e+000  0.0000000e+000  7.0064923e-045  2.0290802e-042  0.0000000e+000  2.0290802e-042  1.4261453e-001 
 6.5169525e-001  0.0000000e+000  0.0000000e+000  0.0000000e+000  0.0000000e+000  0.0000000e+000  0.0000000e+000  1.3652836e-001 
 7.2189790e-001  0.0000000e+000  0.0000000e+000  7.0064923e-045  2.0290802e-042  0.0000000e+000  2.0290802e-042  1.3123304e-001 
 7.9701531e-001  0.0000000e+000  0.0000000e+000  0.0000000e+000  0.0000000e+000  0.0000000e+000  0.0000000e+000  1.2658930e-001 
 8.7739104e-001  0.0000000e+000  0.0000000e+000  7.0064923e-045  2.0290802e-042  0.0000000e+000  2.0290802e-042  1.2248302e-001 
 9.6339333e-001  0.0000000e+000  0.0000000e+000  0.0000000e+000  0.0000000e+000  0.0000000e+000  0.0000000e+000  1.1882028e-001 
 1.0554160e+000  0.0000000e+000  0.0000000e+000  7.0064923e-045  2.0290802e-042  0.0000000e+000  2.0290802e-042  1.1552449e-001 
 1.1538795e+000  0.0000000e+000  0.0000000e+000  0.0000000e+000  0.0000000e+000  0.0000000e+000  0.0000000e+000  1.1253370e-001 
 1.2592361e+000  0.0000000e+000  0.0000000e+000  7.0064923e-045  2.0290802e-042  0.0000000e+000  2.0290802e-042  1.0979853e-001 
 1.3719671e+000  0.0000000e+000  0.0000000e+000  0.0000000e+000  0.0000000e+000  0.0000000e+000  0.0000000e+000  1.0728054e-001 
 1.4925885e+000  0.0000000e+000  0.0000000e+000  7.0064923e-045  2.0290802e-042  0.0000000e+000  2.0290802e-042  1.0494961e-001 
 1.6216545e+000  0.0000000e+000  0.0000000e+000  0.0000000e+000  0.0000000e+000  0.0000000e+000  0.0000000e+000  1.0278291e-001 
 1.7597550e+000  0.0000000e+000  0.0000000e+000  7.0064923e-045  2.0290802e-042  0.0000000e+000  2.0290802e-042  1.0076246e-001 
 1.9075224e+000  0.0000000e+000  0.0000000e+000  0.0000000e+000  0.0000000e+000  0.0000000e+000  0.0000000e+000  9.8874472e-002 
 2.0656340e+000  0.0000000e+000  0.0000000e+000  7.0064923e-045  2.0290802e-042  0.0000000e+000  2.0290802e-042  9.7107910e-002 
 2.2348135e+000  0.0000000e+000  0.0000000e+000  0.0000000e+000  0.0000000e+000  0.0000000e+000  0.0000000e+000  9.5454060e-002 
 2.4158354e+000  0.0000000e+000  0.0000000e+000  7.0064923e-045  2.0290802e-042  0.0000000e+000  2.0290802e-042  9.3905672e-002 
 2.6095285e+000  0.0000000e+000  0.0000000e+000  0.0000000e+000  0.0000000e+000  0.0000000e+000  0.0000000e+000  9.2456616e-002 
 2.8167806e+000  0.0000000e+000  0.0000000e+000  7.0064923e-045  2.0290802e-042  0.0000000e+000  2.0290802e-042  9.1101944e-002 
 3.0385399e+000  0.0000000e+000  0.0000000e+000  0.0000000e+000  0.0000000e+000  0.0000000e+000  0.0000000e+000  8.9837514e-002 
 3.2758224e+000  0.0000000e+000  0.0000000e+000  7.0064923e-045  2.0290802e-042  0.0000000e+000  2.0290802e-042  8.8660039e-002 
 3.5297146e+000  0.0000000e+000  0.0000000e+000  0.0000000e+000  0.0000000e+000  0.0000000e+000  0.0000000e+000  8.7566778e-002 
 3.8013785e+000  0.0000000e+000  0.0000000e+000  7.0064923e-045  2.0290802e-042  0.0000000e+000  2.0290802e-042  8.6555757e-002 
 4.0920601e+000  0.0000000e+000  0.0000000e+000  0.0000000e+000  0.0000000e+000  0.0000000e+000  0.0000000e+000  8.5625336e-002 
 4.4030900e+000  0.0000000e+000  0.0000000e+000  7.0064923e-045  2.0290802e-042  0.0000000e+000  2.0290802e-042  8.4774218e-002 
 4.7358913e+000  0.0000000e+000  0.0000000e+000  0.0000000e+000  0.0000000e+000  0.0000000e+000  0.0000000e+000  8.4001139e-002 
 5.0919890e+000  0.0000000e+000  0.0000000e+000  7.0064923e-045  2.0290802e-042  0.0000000e+000  2.0290802e-042  8.3304770e-002 
 5.4730139e+000  0.0000000e+000  0.0000000e+000  0.0000000e+000  0.0000000e+000  0.0000000e+000  0.0000000e+000  8.2683556e-002 
 5.8807087e+000  0.0000000e+000  0.0000000e+000  7.0064923e-045  2.0290802e-042  0.0000000e+000  2.0290802e-042  8.2135208e-002 
 6.3169422e+000  0.0000000e+000  0.0000000e+000  0.0000000e+000  0.0000000e+000  0.0000000e+000  0.0000000e+000  8.1657097e-002 
 6.7837143e+000  0.0000000e+000  0.0000000e+000  7.0064923e-045  2.0290802e-042  0.0000000e+000  2.0290802e-042  8.1245691e-002 
 7.2831593e+000  0.0000000e+000  0.0000000e+000  0.0000000e+000  0.0000000e+000  0.0000000e+000  0.0000000e+000  8.0896854e-002 
 7.8175659e+000  0.0000000e+000  0.0000000e+000  7.0064923e-045  2.0290802e-042  0.0000000e+000  2.0290802e-042  8.0605716e-002 
 8.3893795e+000  0.0000000e+000  0.0000000e+000  0.0000000e+000  0.0000000e+000  0.0000000e+000  0.0000000e+000  8.0366828e-002 
 9.0012217e+000  0.0000000e+000  0.0000000e+000  7.0064923e-045  2.0290802e-042  0.0000000e+000  2.0290802e-042  8.0174468e-002 
 9.6558924e+000  0.0000000e+000  0.0000000e+000  0.0000000e+000  0.0000000e+000  0.0000000e+000  0.0000000e+000  8.0022536e-002 
 1.0356388e+001  0.0000000e+000  0.0000000e+000  7.0064923e-045  2.0290802e-042  0.0000000e+000  2.0290802e-042  7.9905190e-002 
 1.1105920e+001  0.0000000e+000  0.0000000e+000  0.0000000e+000  0.0000000e+000  0.0000000e+000  0.0000000e+000  7.9816513e-002 
 1.1907920e+001  0.0000000e+000  0.0000000e+000  7.0064923e-045  2.0290802e-042  0.0000000e+000  2.0290802e-042  7.9751045e-002 
 1.2766060e+001  0.0000000e+000  0.0000000e+000  0.0000000e+000  0.0000000e+000  0.0000000e+000  0.0000000e+000  7.9704046e-002 
 1.3684270e+001  0.0000000e+000  0.0000000e+000  7.0064923e-045  2.0290802e-042  0.0000000e+000  2.0290802e-042  7.9671189e-002 
 1.4666756e+001  0.0000000e+000  0.0000000e+000  0.0000000e+000  0.0000000e+000  0.0000000e+000  0.0000000e+000  7.9648912e-002 
 1.5718015e+001  0.0000000e+000  0.0000000e+000  7.0064923e-045  2.0290802e-042  0.0000000e+000  2.0290802e-042  7.9634212e-002 
 1.6842865e+001  0.0000000e+000  0.0000000e+000  0.0000000e+000  0.0000000e+000  0.0000000e+000  0.0000000e+000  7.9624869e-002 
 1.8046452e+001  0.0000000e+000  0.0000000e+000  7.0064923e-045  2.0290802e-042  0.0000000e+000  2.0290802e-042  7.9619341e-002 
 1.9334295e+001  0.0000000e+000  0.0000000e+000  0.0000000e+000  0.0000000e+000  0.0000000e+000  0.0000000e+000  7.9615094e-002 
 2.0000000e+001  0.0000000e+000  0.0000000e+000  7.0064923e-045  2.0290802e-042  0.0000000e+000  2.0290802e-042  7.9612896e-002 
 0.0000000e+000  0.0000000e+000  1.0000000e+000  1.1324903e+000  9.3905650e-002  0.0000000e+000  0.0000000e+000  1.1958078e+000 
 1.2291715e-002  0.0000000e+000  1.0000000e+000  3.8608554e-001 -6.8322748e-005  0.0000000e+000 -6.8322748e-005  1.1137526e+000 
 3.7736509e-002  0.0000000e+000  1.0000000e+000  1.0476195e+000  9.2456594e-002  0.0000000e+000  9.2456594e-002  9.4389194e-001 
 6.4963534e-002  0.0000000e+000  1.0000000e+000  3.7807167e-001 -5.8786918e-005  0.0000000e+000 -5.8786918e-005  7.1199191e-001 
 9.4095588e-002  0.0000000e+000  1.0000000e+000  8.7193036e-001  9.1101930e-002  0.0000000e+000  9.1101930e-002  5.2375996e-001 
 1.2526625e-001  0.0000000e+000  1.0000000e+000  3.6148232e-001 -5.0683338e-005  0.0000000e+000 -5.0683338e-005  3.9587447e-001 
 1.5861896e-001  0.0000000e+000  1.0000000e+000  6.7654055e-001  8.9837506e-002  0.0000000e+000  8.9837506e-002  3.1439704e-001 
 1.9430619e-001  0.0000000e+000  1.0000000e+000  2.2186796e-001 -4.3606404e-005  0.0000000e+000 -4.3606404e-005  2.6342550e-001 
 2.3249130e-001  0.0000000e+000  1.0000000e+000  5.1189667e-001  8.8660032e-002  0.0000000e+000  8.8660032e-002  2.3088536e-001 
 2.7334976e-001  0.0000000e+000  1.0000000e+000  1.1084339e-001 -3.7390557e-005  0.0000000e+000 -3.7390557e-005  2.0869750e-001 
 3.1706923e-001  0.0000000e+000  1.0000000e+000  3.9362451e-001  8.7566778e-002  0.0000000e+000  8.7566778e-002  1.9210492e-001 
 3.6384889e-001  0.0000000e+000  1.0000000e+000  4.2146500e-002 -3.1964435e-005  0.0000000e+000 -3.1964435e-005  1.7870858e-001 
 4.1390228e-001  0.0000000e+000  1.0000000e+000  3.1432989e-001  8.6555749e-002  0.0000000e+000  8.6555749e-002  1.6745186e-001 
 4.6745992e-001  0.0000000e+000  1.0000000e+000  6.4990483e-003 -2.7283799e-005  0.0000000e+000 -2.7283799e-005  1.5786280e-001 
 5.2476656e-001  0.0000000e+000  1.0000000e+000  2.6331598e-001  8.5625328e-002  0.0000000e+000  8.5625328e-002  1.4965971e-001 
 5.8608472e-001  0.0000000e+000  1.0000000e+000 -7.5950189e-003 -2.2991848e-005  0.0000000e+000 -2.2991848e-005  1.4261453e-001 
 6.5169525e-001  0.0000000e+000  1.0000000e+000  2.3064740e-001  8.4774218e-002  0.0000000e+000  8.4774218e-002  1.3652836e-001 
 7.2189790e-001  0.0000000e+000  1.0000000e+000 -1.0479433e-002 -1.9378953e-005  0.0000000e+000 -1.9378953e-005  1.3123304e-001 
 7.9701531e-001  0.0000000e+000  1.0000000e+000  2.0850231e-001  8.4001139e-002  0.0000000e+000  8.4001139e-002  1.2658930e-001 
 8.7739104e-001  0.0000000e+000  1.0000000e+000 -9.0244226e-003 -1.6029044e-005  0.0000000e+000 -1.6029044e-005  1.2248302e-001 
 9.6339333e-001  0.0000000e+000  1.0000000e+000  1.9198811e-001  8.3304770e-002  0.0000000e+000  8.3304770e-002  1.1882028e-001 
 1.0554160e+000  0.0000000e+000  1.0000000e+000 -6.6980966e-003 -1.3656173e-005  0.0000000e+000 -1.3656173e-005  1.1552449e-001 
 1.1538795e+000  0.0000000e+000  1.0000000e+000  1.7864504e-001  8.2683556e-002  0.0000000e+000  8.2683556e-002  1.1253370e-001 
 1.2592361e+000  0.0000000e+000  1.0000000e+000 -4.7652912e-003 -1.1104141e-005  0.0000000e+000 -1.1104141e-005  1.0979853e-001 
 1.3719671e+000  0.0000000e+000  1.0000000e+000  1.6741683e-001  8.2135208e-002  0.0000000e+000  8.2135208e-002  1.0728054e-001 
 1.4925885e+000  0.0000000e+000  1.0000000e+000 -3.4252817e-003 -9.0228850e-006  0.0000000e+000 -9.0228850e-006  1.0494961e-001 
 1.6216545e+000  0.0000000e+000  1.0000000e+000  1.5784247e-001  8.1657097e-002  0.0000000e+000  8.1657097e-002  1.0278291e-001 
 1.7597550e+000  0.0000000e+000  1.0000000e+000 -2.5328703e-003 -7.2386688e-006  0.0000000e+000 -7.2386688e-006  1.0076246e-001 
 1.9075224e+000  0.0000000e+000  1.0000000e+000  1.4964736e-001  8.1245691e-002  0.0000000e+000  8.1245691e-002  9.8874472e-002 
 2.0656340e+000  0.0000000e+000  1.0000000e+000 -1.9224500e-003 -5.8617566e-006  0.0000000e+000 -5.8617566e-006  9.7107910e-002 
 2.2348135e+000  0.0000000e+000  1.0000000e+000  1.4260681e-001  8.0896854e-002  0.0000000e+000  8.0896854e-002  9.5454060e-002 
 2.4158354e+000  0.0000000e+000  1.0000000e+000 -1.4847962e-003 -4.7122726e-006  0.0000000e+000 -4.7122726e-006  9.3905672e-002 
 2.6095285e+000  0.0000000e+000  1.0000000e+000  1.3652343e-001  8.0605716e-002  0.0000000e+000  8.0605716e-002  9.2456616e-002 
 2.8167806e+000  0.0000000e+000  1.0000000e+000 -1.1598632e-003 -3.4698087e-006  0.0000000e+000 -3.4698087e-006  9.1101944e-002 
 3.0385399e+000  0.0000000e+000  1.0000000e+000  1.3122985e-001  8.0366835e-002  0.0000000e+000  8.0366835e-002  8.9837514e-002 
 3.2758224e+000  0.0000000e+000  1.0000000e+000 -9.1397075e-004 -2.6233586e-006  0.0000000e+000 -2.6233586e-006  8.8660039e-002 
 3.5297146e+000  0.0000000e+000  1.0000000e+000  1.2658721e-001  8.0174476e-002  0.0000000e+000  8.0174476e-002  8.7566778e-002 
 3.8013785e+000  0.0000000e+000  1.0000000e+000 -7.2511140e-004 -2.0003272e-006  0.0000000e+000 -2.0003272e-006  8.6555757e-002 
 4.0920601e+000  0.0000000e+000  1.0000000e+000  1.2248164e-001  8.0022536e-002  0.0000000e+000  8.0022536e-002  8.5625336e-002 
 4.4030900e+000  0.0000000e+000  1.0000000e+000 -5.7987694e-004 -1.5248271e-006  0.0000000e+000 -1.5248271e-006  8.4774218e-002 
 4.7358913e+000  0.0000000e+000  1.0000000e+000  1.1881936e-001  7.9905190e-002  0.0000000e+000  7.9905190e-002  8.4001139e-002 
 5.0919890e+000  0.0000000e+000  1.0000000e+000 -4.6680082e-004 -9.8320561e-007  0.0000000e+000 -9.8320561e-007  8.3304770e-002 
 5.4730139e+000  0.0000000e+000  1.0000000e+000  1.1552387e-001  7.9816513e-002  0.0000000e+000  7.9816513e-002  8.2683556e-002 
 5.8807087e+000  0.0000000e+000  1.0000000e+000 -3.7882692e-004 -7.2855556e-007  0.0000000e+000 -7.2855556e-007  8.2135208e-002 
 6.3169422e+000  0.0000000e+000  1.0000000e+000  1.1253327e-001  7.9751045e-002  0.0000000e+000  7.9751045e-002  8.1657097e-002 
 6.7837143e+000  0.0000000e+000  1.0000000e+000 -3.0975646e-004 -5.1395921e-007  0.0000000e+000 -5.1395921e-007  8.1245691e-002 
 7.2831593e+000  0.0000000e+000  1.0000000e+000  1.0979824e-001  7.9704046e-002  0.0000000e+000  7.9704046e-002  8.0896854e-002 
 7.8175659e+000  0.0000000e+000  1.0000000e+000 -2.5522639e-004 -2.0207962e-007  0.0000000e+000 -2.0207962e-007  8.0605716e-002 
 8.3893795e+000  0.0000000e+000  1.0000000e+000  1.0728034e-001  7.9671189e-002  0.0000000e+000  7.9671189e-002  8.0366828e-002 
 9.0012217e+000  0.0000000e+000  1.0000000e+000 -2.1205230e-004 -1.1813697e-007  0.0000000e+000 -1.1813697e-007  8.0174468e-002 
 9.6558924e+000  0.0000000e+000  1.0000000e+000  1.0494946e-001  7.9648905e-002  0.0000000e+000  7.9648905e-002  8.0022536e-002 
 1.0356388e+001  0.0000000e+000  1.0000000e+000 -1.7771573e-004 -1.1901291e-007  0.0000000e+000 -1.1901291e-007  7.9905190e-002 
 1.1105920e+001  0.0000000e+000  1.0000000e+000  1.0278279e-001  7.9634205e-002  0.0000000e+000  7.9634205e-002  7.9816513e-002 
 1.1907920e+001  0.0000000e+000  1.0000000e+000 -1.4997525e-004 -9.4617292e-008  0.0000000e+000 -9.4617292e-008  7.9751045e-002 
 1.2766060e+001  0.0000000e+000  1.0000000e+000  1.0076238e-001  7.9624869e-002  0.0000000e+000  7.9624869e-002  7.9704046e-002 
 1.3684270e+001  0.0000000e+000  1.0000000e+000 -1.2712377e-004 -4.9115918e-008  0.0000000e+000 -4.9115918e-008  7.9671189e-002 
 1.4666756e+001  0.0000000e+000  1.0000000e+000  9.8874412e-002  7.9619341e-002  0.0000000e+000  7.9619341e-002  7.9648912e-002 
 1.5718015e+001  0.0000000e+000  1.0000000e+000 -1.0844626e-004 -5.3413927e-009  0.0000000e+000 -5.3413927e-009  7.9634212e-002 
 1.6842865e+001  0.0000000e+000  1.0000000e+000  9.7107857e-002  7.9615094e-002  0.0000000e+000  7.9615094e-002  7.9624869e-002 
 1.8046452e+001  0.0000000e+000  1.0000000e+000 -9.2974013e-005 -2.1759875e-007  0.0000000e+000 -2.1759875e-007  7.9619341e-002 
 1.9334295e+001  0.0000000e+000  1.0000000e+000  9.5454022e-002  7.9612896e-002  0.0000000e+000  7.9612896e-002  7.9615094e-002 
 2.0000000e+001  0.0000000e+000  1.0000000e+000 -7.9483318e-005 -3.2731751e-007  0.0000000e+000 -3.2731751e-007  7.9612896e-002 
Zone i=1, j=62, k=2
 0.0000000e+000  1.0000000e+000  0.0000000e+000  0.0000000e+000  0.0000000e+000  0.0000000e+000  0.0000000e+000  1.2642133e+000 
 1.2291715e-002  1.0000000e+000  0.0000000e+000  0.0000000e+000  0.0000000e+000  0.0000000e+000  0.0000000e+000  1.1677104e+000 
 3.7736509e-002  1.0000000e+000  0.0000000e+000  0.0000000e+000  0.0000000e+000  0.0000000e+000  0.0000000e+000  9.6794200e-001 
 6.4963534e-002  1.0000000e+000  0.0000000e+000  0.0000000e+000  0.0000000e+000  0.0000000e+000  0.0000000e+000  7.1289420e-001 
 9.4095588e-002  1.0000000e+000  0.0000000e+000  0.0000000e+000  0.0000000e+000  0.0000000e+000  0.0000000e+000  5.1635677e-001 
 1.2526625e-001  1.0000000e+000  0.0000000e+000  0.0000000e+000  0.0000000e+000  0.0000000e+000  0.0000000e+000  3.8887599e-001 
 1.5861896e-001  1.0000000e+000  0.0000000e+000  0.0000000e+000  0.0000000e+000  0.0000000e+000  0.0000000e+000  3.1043813e-001 
 1.9430619e-001  1.0000000e+000  0.0000000e+000  0.0000000e+000  0.0000000e+000  0.0000000e+000  0.0000000e+000  2.6220709e-001 
 2.3249130e-001  1.0000000e+000  0.0000000e+000  0.0000000e+000  0.0000000e+000  0.0000000e+000  0.0000000e+000  2.3128814e-001 
 2.7334976e-001  1.0000000e+000  0.0000000e+000  0.0000000e+000  0.0000000e+000  0.0000000e+000  0.0000000e+000  2.0969397e-001 
 3.1706923e-001  1.0000000e+000  0.0000000e+000  0.0000000e+000  0.0000000e+000  0.0000000e+000  0.0000000e+000  1.9309041e-001 
 3.6384889e-001  1.0000000e+000  0.0000000e+000  0.0000000e+000  0.0000000e+000  0.0000000e+000  0.0000000e+000  1.7948058e-001 
 4.1390228e-001  1.0000000e+000  0.0000000e+000  0.0000000e+000  0.0000000e+000  0.0000000e+000  0.0000000e+000  1.6802038e-001 
 4.6745992e-001  1.0000000e+000  0.0000000e+000  0.0000000e+000  0.0000000e+000  0.0000000e+000  0.0000000e+000  1.5828988e-001 
 5.2476656e-001  1.0000000e+000  0.0000000e+000  0.0000000e+000  0.0000000e+000  0.0000000e+000  0.0000000e+000  1.4999264e-001 
 5.8608472e-001  1.0000000e+000  0.0000000e+000  0.0000000e+000  0.0000000e+000  0.0000000e+000  0.0000000e+000  1.4287928e-001 
 6.5169525e-001  1.0000000e+000  0.0000000e+000  0.0000000e+000  0.0000000e+000  0.0000000e+000  0.0000000e+000  1.3673961e-001 
 7.2189790e-001  1.0000000e+000  0.0000000e+000  0.0000000e+000  0.0000000e+000  0.0000000e+000  0.0000000e+000  1.3140087e-001 
 7.9701531e-001  1.0000000e+000  0.0000000e+000  0.0000000e+000  0.0000000e+000  0.0000000e+000  0.0000000e+000  1.2672177e-001 
 8.7739104e-001  1.0000000e+000  0.0000000e+000  0.0000000e+000  0.0000000e+000  0.0000000e+000  0.0000000e+000  1.2258664e-001 
 9.6339333e-001  1.0000000e+000  0.0000000e+000  0.0000000e+000  0.0000000e+000  0.0000000e+000  0.0000000e+000  1.1890022e-001 
 1.0554160e+000  1.0000000e+000  0.0000000e+000  0.0000000e+000  0.0000000e+000  0.0000000e+000  0.0000000e+000  1.1558490e-001 
 1.1538795e+000  1.0000000e+000  0.0000000e+000  0.0000000e+000  0.0000000e+000  0.0000000e+000  0.0000000e+000  1.1257803e-001 
 1.2592361e+000  1.0000000e+000  0.0000000e+000  0.0000000e+000  0.0000000e+000  0.0000000e+000  0.0000000e+000  1.0982985e-001 
 1.3719671e+000  1.0000000e+000  0.0000000e+000  0.0000000e+000  0.0000000e+000  0.0000000e+000  0.0000000e+000  1.0730121e-001 
 1.4925885e+000  1.0000000e+000  0.0000000e+000  0.0000000e+000  0.0000000e+000  0.0000000e+000  0.0000000e+000  1.0496186e-001 
 1.6216545e+000  1.0000000e+000  0.0000000e+000  0.0000000e+000  0.0000000e+000  0.0000000e+000  0.0000000e+000  1.0278831e-001 
 1.7597550e+000  1.0000000e+000  0.0000000e+000  0.0000000e+000  0.0000000e+000  0.0000000e+000  0.0000000e+000  1.0076255e-001 
 1.9075224e+000  1.0000000e+000  0.0000000e+000  0.0000000e+000  0.0000000e+000  0.0000000e+000  0.0000000e+000  9.8870426e-002 
 2.0656340e+000  1.0000000e+000  0.0000000e+000  0.0000000e+000  0.0000000e+000  0.0000000e+000  0.0000000e+000  9.7100802e-002 
 2.2348135e+000  1.0000000e+000  0.0000000e+000  0.0000000e+000  0.0000000e+000  0.0000000e+000  0.0000000e+000  9.5444635e-002 
 2.4158354e+000  1.0000000e+000  0.0000000e+000  0.0000000e+000  0.0000000e+000  0.0000000e+000  0.0000000e+000  9.3894541e-002 
 2.6095285e+000  1.0000000e+000  0.0000000e+000  0.0000000e+000  0.0000000e+000  0.0000000e+000  0.0000000e+000  9.2444316e-002 
 2.8167806e+000  1.0000000e+000  0.0000000e+000  0.0000000e+000  0.0000000e+000  0.0000000e+000  0.0000000e+000  9.1088824e-002 
 3.0385399e+000  1.0000000e+000  0.0000000e+000  0.0000000e+000  0.0000000e+000  0.0000000e+000  0.0000000e+000  8.9823782e-002 
 3.2758224e+000  1.0000000e+000  0.0000000e+000  0.0000000e+000  0.0000000e+000  0.0000000e+000  0.0000000e+000  8.8645920e-002 
 3.5297146e+000  1.0000000e+000  0.0000000e+000  0.0000000e+000  0.0000000e+000  0.0000000e+000  0.0000000e+000  8.7552354e-002 
 3.8013785e+000  1.0000000e+000  0.0000000e+000  0.0000000e+000  0.0000000e+000  0.0000000e+000  0.0000000e+000  8.6541191e-002 
 4.0920601e+000  1.0000000e+000  0.0000000e+000  0.0000000e+000  0.0000000e+000  0.0000000e+000  0.0000000e+000  8.5610725e-002 
 4.4030900e+000  1.0000000e+000  0.0000000e+000  0.0000000e+000  0.0000000e+000  0.0000000e+000  0.0000000e+000  8.4759615e-002 
 4.7358913e+000  1.0000000e+000  0.0000000e+000  0.0000000e+000  0.0000000e+000  0.0000000e+000  0.0000000e+000  8.3986685e-002 
 5.0919890e+000  1.0000000e+000  0.0000000e+000  0.0000000e+000  0.0000000e+000  0.0000000e+000  0.0000000e+000  8.3290614e-002 
 5.4730139e+000  1.0000000e+000  0.0000000e+000  0.0000000e+000  0.0000000e+000  0.0000000e+000  0.0000000e+000  8.2669668e-002 
 5.8807087e+000  1.0000000e+000  0.0000000e+000  0.0000000e+000  0.0000000e+000  0.0000000e+000  0.0000000e+000  8.2121804e-002 
 6.3169422e+000  1.0000000e+000  0.0000000e+000  0.0000000e+000  0.0000000e+000  0.0000000e+000  0.0000000e+000  8.1644319e-002 
 6.7837143e+000  1.0000000e+000  0.0000000e+000  0.0000000e+000  0.0000000e+000  0.0000000e+000  0.0000000e+000  8.1233554e-002 
 7.2831593e+000  1.0000000e+000  0.0000000e+000  0.0000000e+000  0.0000000e+000  0.0000000e+000  0.0000000e+000  8.0885440e-002 
 7.8175659e+000  1.0000000e+000  0.0000000e+000  0.0000000e+000  0.0000000e+000  0.0000000e+000  0.0000000e+000  8.0595106e-002 
 8.3893795e+000  1.0000000e+000  0.0000000e+000  0.0000000e+000  0.0000000e+000  0.0000000e+000  0.0000000e+000  8.0357060e-002 
 9.0012217e+000  1.0000000e+000  0.0000000e+000  0.0000000e+000  0.0000000e+000  0.0000000e+000  0.0000000e+000  8.0165520e-002 
 9.6558924e+000  1.0000000e+000  0.0000000e+000  0.0000000e+000  0.0000000e+000  0.0000000e+000  0.0000000e+000  8.0014445e-002 
 1.0356388e+001  1.0000000e+000  0.0000000e+000  0.0000000e+000  0.0000000e+000  0.0000000e+000  0.0000000e+000  7.9897791e-002 
 1.1105920e+001  1.0000000e+000  0.0000000e+000  0.0000000e+000  0.0000000e+000  0.0000000e+000  0.0000000e+000  7.9809763e-002 
 1.1907920e+001  1.0000000e+000  0.0000000e+000  0.0000000e+000  0.0000000e+000  0.0000000e+000  0.0000000e+000  7.9744920e-002 
 1.2766060e+001  1.0000000e+000  0.0000000e+000  0.0000000e+000  0.0000000e+000  0.0000000e+000  0.0000000e+000  7.9698436e-002 
 1.3684270e+001  1.0000000e+000  0.0000000e+000  0.0000000e+000  0.0000000e+000  0.0000000e+000  0.0000000e+000  7.9666004e-002 
 1.4666756e+001  1.0000000e+000  0.0000000e+000  0.0000000e+000  0.0000000e+000  0.0000000e+000  0.0000000e+000  7.9644054e-002 
 1.5718015e+001  1.0000000e+000  0.0000000e+000  0.0000000e+000  0.0000000e+000  0.0000000e+000  0.0000000e+000  7.9629622e-002 
 1.6842865e+001  1.0000000e+000  0.0000000e+000  0.0000000e+000  0.0000000e+000  0.0000000e+000  0.0000000e+000  7.9620495e-002 
 1.8046452e+001  1.0000000e+000  0.0000000e+000  0.0000000e+000  0.0000000e+000  0.0000000e+000  0.0000000e+000  7.9615124e-002 
 1.9334295e+001  1.0000000e+000  0.0000000e+000  0.0000000e+000  0.0000000e+000  0.0000000e+000  0.0000000e+000  7.9610959e-002 
 2.0000000e+001  1.0000000e+000  0.0000000e+000  0.0000000e+000  0.0000000e+000  0.0000000e+000  0.0000000e+000  7.9608805e-002 
 0.0000000e+000  1.0000000e+000  1.0000000e+000  1.1903791e+000  9.3894511e-002  0.0000000e+000 -1.1903791e+000  1.2642133e+000 
 1.2291715e-002  1.0000000e+000  1.0000000e+000 -4.2691728e-001  6.5711800e-005  0.0000000e+000  4.2688585e-001  1.1677104e+000 
 3.7736509e-002  1.0000000e+000  1.0000000e+000  1.0938777e+000  9.2444301e-002  0.0000000e+000 -1.0896136e+000  9.6794200e-001 
 6.4963534e-002  1.0000000e+000  1.0000000e+000 -4.0863076e-001  5.6571716e-005  0.0000000e+000  4.0777488e-001  7.1289420e-001 
 9.4095588e-002  1.0000000e+000  1.0000000e+000  8.9411229e-001  9.1088809e-002  0.0000000e+000 -8.8164679e-001  5.1635677e-001 
 1.2526625e-001  1.0000000e+000  1.0000000e+000 -3.7077624e-001  4.8413749e-005  0.0000000e+000  3.6790701e-001  3.8887599e-001 
 1.5861896e-001  1.0000000e+000  1.0000000e+000  6.8014246e-001  8.9823775e-002  0.0000000e+000 -6.5767259e-001  3.1043813e-001 
 1.9430619e-001  1.0000000e+000  1.0000000e+000 -2.1359877e-001  4.1977917e-005  0.0000000e+000  2.0968528e-001  2.6220709e-001 
 2.3249130e-001  1.0000000e+000  1.0000000e+000  5.0686646e-001  8.8645913e-002  0.0000000e+000 -4.7362525e-001  2.3128814e-001 
 2.7334976e-001  1.0000000e+000  1.0000000e+000 -9.8543048e-002  3.5813664e-005  0.0000000e+000  9.5065174e-002  2.0969397e-001 
 3.1706923e-001  1.0000000e+000  1.0000000e+000  3.8751742e-001  8.7552346e-002  0.0000000e+000 -3.4293204e-001  1.9309041e-001 
 3.6384889e-001  1.0000000e+000  1.0000000e+000 -3.2477535e-002  3.0807514e-005  0.0000000e+000  3.0530624e-002  1.7948058e-001 
 4.1390228e-001  1.0000000e+000  1.0000000e+000  3.1043610e-001  8.6541183e-002  0.0000000e+000 -2.5374049e-001  1.6802038e-001 
 4.6745992e-001  1.0000000e+000  1.0000000e+000 -1.1275329e-003  2.6129626e-005  0.0000000e+000  1.0325059e-003  1.5828988e-001 
 5.2476656e-001  1.0000000e+000  1.0000000e+000  2.6203534e-001  8.5610725e-002  0.0000000e+000 -1.9224693e-001  1.4999264e-001 
 5.8608472e-001  1.0000000e+000  1.0000000e+000  9.4886087e-003  2.2165123e-005  0.0000000e+000 -8.1750322e-003  1.4287928e-001 
 6.5169525e-001  1.0000000e+000  1.0000000e+000  2.3105183e-001  8.4759615e-002  0.0000000e+000 -1.4729625e-001  1.3673961e-001 
 7.2189790e-001  1.0000000e+000  1.0000000e+000  1.0452392e-002  1.8679792e-005  0.0000000e+000 -8.4639075e-003  1.3140087e-001 
 7.9701531e-001  1.0000000e+000  1.0000000e+000  2.0952842e-001  8.3986685e-002  0.0000000e+000 -1.1150604e-001  1.2672177e-001 
 8.7739104e-001  1.0000000e+000  1.0000000e+000  8.3305771e-003  1.5641908e-005  0.0000000e+000 -6.2516562e-003  1.2258664e-001 
 9.6339333e-001  1.0000000e+000  1.0000000e+000  1.9299740e-001  8.3290607e-002  0.0000000e+000 -8.1202805e-002  1.1890022e-001 
 1.0554160e+000  1.0000000e+000  1.0000000e+000  5.9930529e-003  1.2969654e-005  0.0000000e+000 -4.1125625e-003  1.1558490e-001 
 1.1538795e+000  1.0000000e+000  1.0000000e+000  1.7943031e-001  8.2669660e-002  0.0000000e+000 -5.5039111e-002  1.1257803e-001 
 1.2592361e+000  1.0000000e+000  1.0000000e+000  4.2483401e-003  1.0701716e-005  0.0000000e+000 -2.6336161e-003  1.0982985e-001 
 1.3719671e+000  1.0000000e+000  1.0000000e+000  1.6799209e-001  8.2121804e-002  0.0000000e+000 -3.2586813e-002  1.0730121e-001 
 1.4925885e+000  1.0000000e+000  1.0000000e+000  3.0833234e-003  8.7613462e-006  0.0000000e+000 -1.7089074e-003  1.0496186e-001 
 1.6216545e+000  1.0000000e+000  1.0000000e+000  1.5827310e-001  8.1644319e-002  0.0000000e+000 -1.3580888e-002  1.0278831e-001 
 1.7597550e+000  1.0000000e+000  1.0000000e+000  2.3056339e-003  6.9690636e-006  0.0000000e+000 -1.1330656e-003  1.0076255e-001 
 1.9075224e+000  1.0000000e+000  1.0000000e+000  1.4998227e-001  8.1233554e-002  0.0000000e+000  2.3087876e-003  9.8870426e-002 
 2.0656340e+000  1.0000000e+000  1.0000000e+000  1.7630609e-003  5.7176435e-006  0.0000000e+000 -7.6308517e-004  9.7100802e-002 
 2.2348135e+000  1.0000000e+000  1.0000000e+000  1.4287272e-001  8.0885440e-002  0.0000000e+000  1.5476232e-002  9.5444635e-002 
 2.4158354e+000  1.0000000e+000  1.0000000e+000  1.3677166e-003  4.3114615e-006  0.0000000e+000 -5.1911885e-004  9.3894541e-002 
 2.6095285e+000  1.0000000e+000  1.0000000e+000  1.3673541e-001  8.0595106e-002  0.0000000e+000  2.6329538e-002  9.2444316e-002 
 2.8167806e+000  1.0000000e+000  1.0000000e+000  1.0720467e-003  3.3715198e-006  0.0000000e+000 -3.5548412e-004  9.1088824e-002 
 3.0385399e+000  1.0000000e+000  1.0000000e+000  1.3139814e-001  8.0357060e-002  0.0000000e+000  3.5253148e-002  8.9823782e-002 
 3.2758224e+000  1.0000000e+000  1.0000000e+000  8.4666471e-004  2.5660038e-006  0.0000000e+000 -2.4474309e-004  8.8645920e-002 
 3.5297146e+000  1.0000000e+000  1.0000000e+000  1.2671998e-001  8.0165520e-002  0.0000000e+000  4.2588432e-002  8.7552354e-002 
 3.8013785e+000  1.0000000e+000  1.0000000e+000  6.7396974e-004  1.8116336e-006  0.0000000e+000 -1.6971059e-004  8.6541191e-002 
 4.0920601e+000  1.0000000e+000  1.0000000e+000  1.2258545e-001  8.0014445e-002  0.0000000e+000  4.8626616e-002  8.5610725e-002 
 4.4030900e+000  1.0000000e+000  1.0000000e+000  5.4047565e-004  1.5916562e-006  0.0000000e+000 -1.1814875e-004  8.4759615e-002 
 4.7358913e+000  1.0000000e+000  1.0000000e+000  1.1889941e-001  7.9897791e-002  0.0000000e+000  5.3609682e-002  8.3986685e-002 
 5.0919890e+000  1.0000000e+000  1.0000000e+000  4.3644028e-004  9.7534667e-007  0.0000000e+000 -8.3147571e-005  8.3290614e-002 
 5.4730139e+000  1.0000000e+000  1.0000000e+000  1.1558435e-001  7.9809763e-002  0.0000000e+000  5.7734985e-002  8.2669668e-002 
 5.8807087e+000  1.0000000e+000  1.0000000e+000  3.5506874e-004  6.5727852e-007  0.0000000e+000 -5.8876115e-005  8.2121804e-002 
 6.3169422e+000  1.0000000e+000  1.0000000e+000  1.1257766e-001  7.9744920e-002  0.0000000e+000  6.1161753e-002  8.1644319e-002 