Variables = "x","y", "Velocity_x", "Velocity_y", "Velocity_whole value", "Pressure", "Absolute pressure", "Total pressure"
Zone i=12, j=12
 0.0000000e+000  0.0000000e+000  0.0000000e+000  0.0000000e+000  0.0000000e+000  1.6911754e-002  1.6911754e-002  1.6911754e-002 
 5.0000001e-002  0.0000000e+000  0.0000000e+000  0.0000000e+000  0.0000000e+000  1.6446158e-002  1.6446158e-002  1.6446158e-002 
 1.5000001e-001  0.0000000e+000  0.0000000e+000  0.0000000e+000  0.0000000e+000  1.5514964e-002  1.5514964e-002  1.5514964e-002 
 2.5000006e-001  0.0000000e+000  0.0000000e+000  0.0000000e+000  0.0000000e+000  1.5210202e-002  1.5210202e-002  1.5210202e-002 
 3.5000008e-001  0.0000000e+000  0.0000000e+000  0.0000000e+000  0.0000000e+000  1.5610313e-002  1.5610313e-002  1.5610313e-002 
 4.5000011e-001  0.0000000e+000  0.0000000e+000  0.0000000e+000  0.0000000e+000  1.5810112e-002  1.5810112e-002  1.5810112e-002 
 5.5000007e-001  0.0000000e+000  0.0000000e+000  0.0000000e+000  0.0000000e+000  1.6330848e-002  1.6330848e-002  1.6330848e-002 
 6.5000015e-001  0.0000000e+000  0.0000000e+000  0.0000000e+000  0.0000000e+000  2.1732029e-002  2.1732029e-002  2.1732029e-002 
 7.5000024e-001  0.0000000e+000  0.0000000e+000  0.0000000e+000  0.0000000e+000  2.9282257e-002  2.9282257e-002  2.9282257e-002 
 8.5000020e-001  0.0000000e+000  0.0000000e+000  0.0000000e+000  0.0000000e+000  3.1154007e-002  3.1154007e-002  3.1154007e-002 
 9.5000011e-001  0.0000000e+000  0.0000000e+000  0.0000000e+000  0.0000000e+000  2.7607840e-002  2.7607840e-002  2.7607840e-002 
 1.0000000e+000  0.0000000e+000  0.0000000e+000  0.0000000e+000  0.0000000e+000  2.5834758e-002  2.5834758e-002  2.5834758e-002 
 0.0000000e+000  5.0000001e-002  0.0000000e+000  0.0000000e+000  0.0000000e+000  1.7712157e-002  1.7712157e-002  1.7712157e-002 
 5.0000001e-002  5.0000001e-002  1.2104432e-002 -1.8762494e-002  2.2328198e-002  1.7192649e-002  1.7192649e-002  1.7441923e-002 
 1.5000001e-001  5.0000001e-002  1.5829939e-002 -1.4228758e-002  2.1284843e-002  1.6153630e-002  1.6153630e-002  1.6380152e-002 
 2.5000006e-001  5.0000001e-002 -3.3015211e-003  1.0836974e-002  1.1328726e-002  1.5205601e-002  1.5205601e-002  1.5269771e-002 
 3.5000008e-001  5.0000001e-002 -6.5307915e-002  4.2135112e-002  7.7720597e-002  1.4546393e-002  1.4546393e-002  1.7566640e-002 
 4.5000011e-001  5.0000001e-002 -1.3422489e-001  5.0314389e-002  1.4334525e-001  1.3390480e-002  1.3390480e-002  2.3664409e-002 
 5.5000007e-001  5.0000001e-002 -1.6826472e-001  3.0010467e-002  1.7091998e-001  1.3743624e-002  1.3743624e-002  2.8350446e-002 
 6.5000015e-001  5.0000001e-002 -1.5792151e-001  8.4259314e-003  1.5814613e-001  1.8843554e-002  1.8843554e-002  3.1348653e-002 
 7.5000024e-001  5.0000001e-002 -1.1005994e-001 -1.2519773e-002  1.1076974e-001  2.6571795e-002  2.6571795e-002  3.2706764e-002 
 8.5000020e-001  5.0000001e-002 -4.0353611e-002 -1.8614471e-002  4.4439986e-002  2.9738415e-002  2.9738415e-002  3.0725872e-002 
 9.5000011e-001  5.0000001e-002  1.5828617e-002  3.8610217e-003  1.6292715e-002  2.7279535e-002  2.7279535e-002  2.7412262e-002 
 1.0000000e+000  5.0000001e-002  0.0000000e+000  0.0000000e+000  0.0000000e+000  2.6050096e-002  2.6050096e-002  2.6050096e-002 
 0.0000000e+000  1.5000001e-001  0.0000000e+000  0.0000000e+000  0.0000000e+000  1.9312967e-002  1.9312967e-002  1.9312967e-002 
 5.0000001e-002  1.5000001e-001 -6.0619100e-004 -9.7263139e-003  9.7451862e-003  1.8685631e-002  1.8685631e-002  1.8733116e-002 
 1.5000001e-001  1.5000001e-001 -4.8804253e-002  3.2163564e-002  5.8449551e-002  1.7430961e-002  1.7430961e-002  1.9139135e-002 
 2.5000006e-001  1.5000001e-001 -1.1931553e-001  8.0560498e-002  1.4396593e-001  1.5196400e-002  1.5196400e-002  2.5559494e-002 
 3.5000008e-001  1.5000001e-001 -1.9450726e-001  9.5097296e-002  2.1650997e-001  1.2418555e-002  1.2418555e-002  3.5856839e-002 
 4.5000011e-001  1.5000001e-001 -2.4098191e-001  6.3986711e-002  2.4933226e-001  8.5512148e-003  8.5512148e-003  3.9634503e-002 
 5.5000007e-001  1.5000001e-001 -2.4953187e-001  8.2059791e-003  2.4966675e-001  8.5691782e-003  8.5691782e-003  3.9735924e-002 
 6.5000015e-001  1.5000001e-001 -2.3158923e-001 -5.0818767e-002  2.3709938e-001  1.3066607e-002  1.3066607e-002  4.1174665e-002 
 7.5000024e-001  1.5000001e-001 -1.8668500e-001 -9.9280216e-002  2.1144231e-001  2.1150872e-002  2.1150872e-002  4.3504797e-002 
 8.5000020e-001  1.5000001e-001 -1.1247548e-001 -1.0481843e-001  1.5374537e-001  2.6907232e-002  2.6907232e-002  3.8726050e-002 
 9.5000011e-001  1.5000001e-001 -2.3400566e-002 -2.0211034e-002  3.0920420e-002  2.6622925e-002  2.6622925e-002  2.7100962e-002 
 1.0000000e+000  1.5000001e-001  0.0000000e+000  0.0000000e+000  0.0000000e+000  2.6480773e-002  2.6480773e-002  2.6480773e-002 
 0.0000000e+000  2.5000006e-001  0.0000000e+000  0.0000000e+000  0.0000000e+000  2.1433461e-002  2.1433461e-002  2.1433461e-002 
 5.0000001e-002  2.5000006e-001 -1.4153753e-002  3.9266959e-002  4.1739941e-002  2.0195259e-002  2.0195259e-002  2.1066369e-002 
 1.5000001e-001  2.5000006e-001 -8.9810349e-002  1.0242395e-001  1.3622248e-001  1.7718853e-002  1.7718853e-002  2.6997136e-002 
 2.5000006e-001  2.5000006e-001 -1.6051637e-001  1.4956832e-001  2.1939960e-001  1.0462335e-002  1.0462335e-002  3.4530427e-002 
 3.5000008e-001  2.5000006e-001 -2.1319850e-001  1.4257395e-001  2.5647792e-001  1.5722215e-004  1.5722215e-004  3.3047687e-002 
 4.5000011e-001  2.5000006e-001 -2.3615058e-001  8.6588696e-002  2.5152475e-001 -9.1550509e-003 -9.1550509e-003  2.2477297e-002 
 5.5000007e-001  2.5000006e-001 -2.4333648e-001  1.0472679e-002  2.4356174e-001 -1.3442901e-002 -1.3442901e-002  1.6218260e-002 
 6.5000015e-001  2.5000006e-001 -2.3567779e-001 -7.4036464e-002  2.4703324e-001 -8.8615268e-003 -8.8615268e-003  2.1651184e-002 
 7.5000024e-001  2.5000006e-001 -2.0919134e-001 -1.5564185e-001  2.6074010e-001  2.6973158e-003  2.6973158e-003  3.6690015e-002 
 8.5000020e-001  2.5000006e-001 -1.5672429e-001 -2.0187582e-001  2.5557065e-001  1.7423144e-002  1.7423144e-002  5.0081320e-002 
 9.5000011e-001  2.5000006e-001 -7.4112698e-002 -1.2268873e-001  1.4333603e-001  2.1740915e-002  2.1740915e-002  3.2013524e-002 
 1.0000000e+000  2.5000006e-001  0.0000000e+000  0.0000000e+000  0.0000000e+000  2.3899799e-002  2.3899799e-002  2.3899799e-002 
 0.0000000e+000  3.5000008e-001  0.0000000e+000  0.0000000e+000  0.0000000e+000  1.9608121e-002  1.9608121e-002  1.9608121e-002 
 5.0000001e-002  3.5000008e-001 -9.3116071e-003  9.4222501e-002  9.4681494e-002  1.7809685e-002  1.7809685e-002  2.2291979e-002 
 1.5000001e-001  3.5000008e-001 -8.0171019e-002  1.6375192e-001  1.8232411e-001  1.4212815e-002  1.4212815e-002  3.0833855e-002 
 2.5000006e-001  3.5000008e-001 -1.2897618e-001  1.9929671e-001  2.3739004e-001  1.5391953e-003  1.5391953e-003  2.9716212e-002 
 3.5000008e-001  3.5000008e-001 -1.5658857e-001  1.7104249e-001  2.3189548e-001 -1.4504634e-002 -1.4504634e-002  1.2383122e-002 
 4.5000011e-001  3.5000008e-001 -1.5989639e-001  9.7605214e-002  1.8733294e-001 -2.6507001e-002 -2.6507001e-002 -8.9601846e-003 
 5.5000007e-001  3.5000008e-001 -1.5543838e-001  1.2274218e-002  1.5592225e-001 -3.0822465e-002 -3.0822465e-002 -1.8666591e-002 
 6.5000015e-001  3.5000008e-001 -1.5184170e-001 -7.3697217e-002  1.6878146e-001 -2.7620394e-002 -2.7620394e-002 -1.3376803e-002 
 7.5000024e-001  3.5000008e-001 -1.4738752e-001 -1.6985340e-001  2.2488499e-001 -1.6985947e-002 -1.6985947e-002  8.3006825e-003 
 8.5000020e-001  3.5000008e-001 -1.3453045e-001 -2.6466545e-001  2.9689434e-001 -1.4500141e-004 -1.4500141e-004  4.3928120e-002 
 9.5000011e-001  3.5000008e-001 -8.9489125e-002 -2.5090471e-001  2.6638594e-001  9.9302027e-003  9.9302027e-003  4.5410942e-002 
 1.0000000e+000  3.5000008e-001  0.0000000e+000  0.0000000e+000  0.0000000e+000  1.4967801e-002  1.4967801e-002  1.4967801e-002 
 0.0000000e+000  4.5000011e-001  0.0000000e+000  0.0000000e+000  0.0000000e+000  1.4099528e-002  1.4099528e-002  1.4099528e-002 
 5.0000001e-002  4.5000011e-001  4.6023224e-003  1.3430601e-001  1.3438484e-001  1.2280416e-002  1.2280416e-002  2.1310059e-002 
 1.5000001e-001  4.5000011e-001 -4.3384526e-002  2.0466042e-001  2.0920828e-001  8.6421901e-003  8.6421901e-003  3.0526241e-002 
 2.5000006e-001  4.5000011e-001 -6.6472568e-002  2.2661920e-001  2.3616703e-001 -6.3166665e-003 -6.3166665e-003  2.1570764e-002 
 3.5000008e-001  4.5000011e-001 -7.6351367e-002  1.8027267e-001  1.9577478e-001 -2.3790911e-002 -2.3790911e-002 -4.6270275e-003 
 4.5000011e-001  4.5000011e-001 -7.1664482e-002  9.5267467e-002  1.1921278e-001 -3.5920445e-002 -3.5920445e-002 -2.8814601e-002 
 5.5000007e-001  4.5000011e-001 -6.7092642e-002  8.4163183e-003  6.7618467e-002 -3.9926529e-002 -3.9926529e-002 -3.7640400e-002 
 6.5000015e-001  4.5000011e-001 -6.5542459e-002 -7.3555164e-002  9.8519929e-002 -3.7131064e-002 -3.7131064e-002 -3.2277975e-002 
 7.5000024e-001  4.5000011e-001 -6.3040860e-002 -1.5969589e-001  1.7168847e-001 -2.8456505e-002 -2.8456505e-002 -1.3718042e-002 
 8.5000020e-001  4.5000011e-001 -8.0058828e-002 -2.7265000e-001  2.8416094e-001 -1.6474720e-002 -1.6474720e-002  2.3899000e-002 
 9.5000011e-001  4.5000011e-001 -7.0708871e-002 -3.4375367e-001  3.5095060e-001 -3.8914867e-003 -3.8914867e-003  5.7691678e-002 
 1.0000000e+000  4.5000011e-001  0.0000000e+000  0.0000000e+000  0.0000000e+000  2.4001221e-003  2.4001221e-003  2.4001221e-003 
 0.0000000e+000  5.5000007e-001  0.0000000e+000  0.0000000e+000  0.0000000e+000  9.5898844e-003  9.5898844e-003  9.5898844e-003 
 5.0000001e-002  5.5000007e-001  1.9142753e-002  1.4450940e-001  1.4577179e-001  8.0085462e-003  8.0085462e-003  1.8633252e-002 
 1.5000001e-001  5.5000007e-001  8.2256523e-004  2.2148447e-001  2.2148600e-001  4.8458725e-003  4.8458725e-003  2.9373895e-002 
 2.5000006e-001  5.5000007e-001  3.9333813e-003  2.3415013e-001  2.3418316e-001 -9.7096441e-003 -9.7096441e-003  1.7711233e-002 
 3.5000008e-001  5.5000007e-001  5.4070801e-003  1.8029171e-001  1.8037277e-001 -2.6445987e-002 -2.6445987e-002 -1.0178817e-002 
 4.5000011e-001  5.5000007e-001  1.1591077e-002  9.3523853e-002  9.4239399e-002 -3.8185742e-002 -3.8185742e-002 -3.3745211e-002 
 5.5000007e-001  5.5000007e-001  1.0438193e-002  5.3832908e-003  1.1744603e-002 -4.2185634e-002 -4.2185634e-002 -4.2116668e-002 
 6.5000015e-001  5.5000007e-001  1.7931648e-003 -7.8257464e-002  7.8278005e-002 -3.9522789e-002 -3.9522789e-002 -3.6459066e-002 
 7.5000024e-001  5.5000007e-001  1.4434680e-003 -1.5263632e-001  1.5264314e-001 -3.0674845e-002 -3.0674845e-002 -1.9024881e-002 
 8.5000020e-001  5.5000007e-001 -3.2421682e-002 -2.5350595e-001  2.5557080e-001 -2.2741938e-002 -2.2741938e-002  9.9162767e-003 
 9.5000011e-001  5.5000007e-001 -4.5548938e-002 -3.9767900e-001  4.0027902e-001 -1.0797181e-002 -1.0797181e-002  6.9314465e-002 
 1.0000000e+000  5.5000007e-001  0.0000000e+000  0.0000000e+000  0.0000000e+000 -4.8248023e-003 -4.8248023e-003 -4.8248023e-003 
 0.0000000e+000  6.5000015e-001  0.0000000e+000  0.0000000e+000  0.0000000e+000  8.5309818e-003  8.5309818e-003  8.5309818e-003 
 5.0000001e-002  6.5000015e-001  3.1844739e-002  1.2510511e-001  1.2909445e-001  7.2135366e-003  7.2135366e-003  1.5546225e-002 
 1.5000001e-001  6.5000015e-001  3.9532769e-002  2.1654294e-001  2.2012198e-001  4.5786453e-003  4.5786453e-003  2.8805489e-002 
 2.5000006e-001  6.5000015e-001  6.3379817e-002  2.2379540e-001  2.3259704e-001 -6.7433221e-003 -6.7433221e-003  2.0307370e-002 
 3.5000008e-001  6.5000015e-001  8.1704617e-002  1.7308114e-001  1.9139677e-001 -2.1875862e-002 -2.1875862e-002 -3.5594986e-003 
 4.5000011e-001  6.5000015e-001  9.3034536e-002  9.5974296e-002  1.3366559e-001 -3.3973828e-002 -3.3973828e-002 -2.5040584e-002 
 5.5000007e-001  6.5000015e-001  9.1485061e-002  1.5148818e-002  9.2730813e-002 -3.8254686e-002 -3.8254686e-002 -3.3955183e-002 
 6.5000015e-001  6.5000015e-001  7.9061054e-002 -6.3827619e-002  1.0161012e-001 -3.5152685e-002 -3.5152685e-002 -2.9990377e-002 
 7.5000024e-001  6.5000015e-001  5.9795845e-002 -1.3263343e-001  1.4548942e-001 -2.6053788e-002 -2.6053788e-002 -1.5470203e-002 
 8.5000020e-001  6.5000015e-001  7.9184202e-003 -2.1420257e-001  2.1434888e-001 -1.8409206e-002 -1.8409206e-002  4.5635151e-003 
 9.5000011e-001  6.5000015e-001 -2.1697173e-002 -4.2103446e-001  4.2159316e-001 -7.9372665e-003 -7.9372665e-003  8.0933124e-002 
 1.0000000e+000  6.5000015e-001  0.0000000e+000  0.0000000e+000  0.0000000e+000 -2.7013032e-003 -2.7013032e-003 -2.7013032e-003 
 0.0000000e+000  7.5000024e-001  0.0000000e+000  0.0000000e+000  0.0000000e+000  7.2131101e-003  7.2131101e-003  7.2131101e-003 
 5.0000001e-002  7.5000024e-001  2.3258664e-002  7.8123987e-002  8.1512712e-002  7.4419682e-003  7.4419682e-003  1.0764129e-002 
 1.5000001e-001  7.5000024e-001  6.2525816e-002  1.7736635e-001  1.8806460e-001  7.8996848e-003  7.8996848e-003  2.5583833e-002 
 2.5000006e-001  7.5000024e-001  1.0929664e-001  1.9130263e-001  2.2032352e-001  1.3571085e-003  1.3571085e-003  2.5628334e-002 
 3.5000008e-001  7.5000024e-001  1.5033735e-001  1.5268071e-001  2.1427253e-001 -1.1491269e-002 -1.1491269e-002  1.1465090e-002 
 4.5000011e-001  7.5000024e-001  1.7380542e-001  9.1982134e-002  1.9664444e-001 -2.3617176e-002 -2.3617176e-002 -4.2826585e-003 
 5.5000007e-001  7.5000024e-001  1.7845310e-001  2.6325243e-002  1.8038440e-001 -2.8268306e-002 -2.8268306e-002 -1.1999042e-002 
 6.5000015e-001  7.5000024e-001  1.5474360e-001 -3.5274066e-002  1.5871307e-001 -2.5257846e-002 -2.5257846e-002 -1.2662926e-002 
 7.5000024e-001  7.5000024e-001  1.1706303e-001 -9.1482475e-002  1.4856917e-001 -1.5466476e-002 -1.5466476e-002 -4.4300775e-003 
 8.5000020e-001  7.5000024e-001  4.5724150e-002 -1.6716164e-001  1.7330237e-001 -7.4663172e-003 -7.4663172e-003  7.5505394e-003 
 9.5000011e-001  7.5000024e-001  4.9790116e-003 -4.2166254e-001  4.2169192e-001  1.6857374e-003  1.6857374e-003  9.0597779e-002 
 1.0000000e+000  7.5000024e-001  0.0000000e+000  0.0000000e+000  0.0000000e+000  6.2617594e-003  6.2617594e-003  6.2617594e-003 
 0.0000000e+000  8.5000020e-001  0.0000000e+000  0.0000000e+000  0.0000000e+000  7.1280464e-003  7.1280464e-003  7.1280464e-003 
 5.0000001e-002  8.5000020e-001 -3.4972101e-002  5.6928508e-002  6.6812448e-002  9.3185818e-003  9.3185818e-003  1.1550534e-002 
 1.5000001e-001  8.5000020e-001  1.9845447e-002  1.2210122e-001  1.2370348e-001  1.3699653e-002  1.3699653e-002  2.1350928e-002 
 2.5000006e-001  8.5000020e-001  9.1306694e-002  1.3441168e-001  1.6249126e-001  1.1977354e-002  1.1977354e-002  2.5179060e-002 
 3.5000008e-001  8.5000020e-001  1.5911609e-001  1.1426727e-001  1.9589522e-001  1.6660516e-003  1.6660516e-003  2.0853521e-002 
 4.5000011e-001  8.5000020e-001  2.0300767e-001  7.9396158e-002  2.1798134e-001 -1.0499173e-002 -1.0499173e-002  1.3258759e-002 
 5.5000007e-001  8.5000020e-001  2.2127949e-001  3.9804824e-002  2.2483112e-001 -1.6429557e-002 -1.6429557e-002  8.8449614e-003 
 6.5000015e-001  8.5000020e-001  2.0327908e-001  6.0154442e-003  2.0336807e-001 -1.4502752e-002 -1.4502752e-002  6.1765327e-003 
 7.5000024e-001  8.5000020e-001  1.7952956e-001 -3.5658553e-002  1.8303660e-001 -3.5892283e-003 -3.5892283e-003  1.3161970e-002 
 8.5000020e-001  8.5000020e-001  9.6413776e-002 -1.0511770e-001  1.4263712e-001  8.1504080e-003  8.1504080e-003  1.8323082e-002 
 9.5000011e-001  8.5000020e-001  6.2509246e-002 -3.8429257e-001  3.8934329e-001  3.0012734e-002  3.0012734e-002  1.0580683e-001 
 1.0000000e+000  8.5000020e-001  0.0000000e+000  0.0000000e+000  0.0000000e+000  4.0943883e-002  4.0943883e-002  4.0943883e-002 
 0.0000000e+000  9.5000011e-001  0.0000000e+000  0.0000000e+000  0.0000000e+000  3.1146989e-003  3.1146989e-003  3.1146989e-003 
 5.0000001e-002  9.5000011e-001  5.0986242e-002  8.2856588e-002  9.7287260e-002  8.8871857e-003  8.8871857e-003  1.3619591e-002 
 1.5000001e-001  9.5000011e-001  1.1520794e-001  5.0477061e-002  1.2578078e-001  2.0432159e-002  2.0432159e-002  2.8342562e-002 
 2.5000006e-001  9.5000011e-001  1.9851723e-001  3.4219354e-002  2.0144492e-001  1.9077884e-002  1.9077884e-002  3.9367910e-002 
 3.5000008e-001  9.5000011e-001  2.8304353e-001  2.6273914e-002  2.8426036e-001  7.4239750e-003  7.4239750e-003  4.7825955e-002 
 4.5000011e-001  9.5000011e-001  3.4646797e-001  1.9592294e-002  3.4702149e-001 -5.9279734e-003 -5.9279734e-003  5.4283984e-002 
 5.5000007e-001  9.5000011e-001  3.9221001e-001  1.0289868e-002  3.9234495e-001 -1.2989631e-002 -1.2989631e-002  6.3977651e-002 
 6.5000015e-001  9.5000011e-001  4.0049356e-001  7.3968964e-003  4.0056187e-001 -1.1607749e-002 -1.1607749e-002  6.8617158e-002 
 7.5000024e-001  9.5000011e-001  4.1192427e-001 -1.1681330e-002  4.1208985e-001  4.0054685e-003  4.0054685e-003  8.8914499e-002 
 8.5000020e-001  9.5000011e-001  3.3530709e-001 -2.0652626e-002  3.3594251e-001  3.3360433e-002  3.3360433e-002  8.9789122e-002 
 9.5000011e-001  9.5000011e-001  3.3157745e-001 -2.1610537e-001  3.9578420e-001  1.1183910e-001  1.1183910e-001  1.9016168e-001 
 1.0000000e+000  9.5000011e-001  0.0000000e+000  0.0000000e+000  0.0000000e+000  1.5107839e-001  1.5107839e-001  1.5107839e-001 
 0.0000000e+000  1.0000000e+000  5.0000000e-001  0.0000000e+000  5.0000000e-001  1.1080275e-003  1.1080275e-003  2.5110802e-001 
 5.0000001e-002  1.0000000e+000  1.0000000e+000  0.0000000e+000  1.0000000e+000  8.6714877e-003  8.6714877e-003  5.0867146e-001 
 1.5000001e-001  1.0000000e+000  1.0000000e+000  0.0000000e+000  1.0000000e+000  2.3798408e-002  2.3798408e-002  5.2379841e-001 
 2.5000006e-001  1.0000000e+000  1.0000000e+000  0.0000000e+000  1.0000000e+000  2.2628145e-002  2.2628145e-002  5.2262813e-001 
 3.5000008e-001  1.0000000e+000  1.0000000e+000  0.0000000e+000  1.0000000e+000  1.0302934e-002  1.0302934e-002  5.1030296e-001 
 4.5000011e-001  1.0000000e+000  1.0000000e+000  0.0000000e+000  1.0000000e+000 -3.6423767e-003 -3.6423767e-003  4.9635762e-001 
 5.5000007e-001  1.0000000e+000  1.0000000e+000  0.0000000e+000  1.0000000e+000 -1.1269672e-002 -1.1269672e-002  4.8873034e-001 
 6.5000015e-001  1.0000000e+000  1.0000000e+000  0.0000000e+000  1.0000000e+000 -1.0160252e-002 -1.0160252e-002  4.8983973e-001 
 7.5000024e-001  1.0000000e+000  1.0000000e+000  0.0000000e+000  1.0000000e+000  7.8028110e-003  7.8028110e-003  5.0780278e-001 
 8.5000020e-001  1.0000000e+000  1.0000000e+000  0.0000000e+000  1.0000000e+000  4.5965429e-002  4.5965429e-002  5.4596543e-001 
 9.5000011e-001  1.0000000e+000  1.0000000e+000  0.0000000e+000  1.0000000e+000  1.5275224e-001  1.5275224e-001  6.5275222e-001 
 1.0000000e+000  1.0000000e+000  5.0000000e-001  0.0000000e+000  5.0000000e-001  2.0614557e-001  2.0614557e-001  4.5614555e-001 
