Variables = "x","y", "Velocity_x", "Velocity_y", "Velocity_whole value", "Pressure", "Absolute pressure", "Total pressure"
Zone i=22, j=22
 0.0000000e+000  0.0000000e+000  0.0000000e+000  0.0000000e+000  0.0000000e+000  2.8801305e-002  2.8801305e-002  2.8801305e-002 
 2.5000004e-002  0.0000000e+000  0.0000000e+000  0.0000000e+000  0.0000000e+000  2.8740710e-002  2.8740710e-002  2.8740710e-002 
 7.5000003e-002  0.0000000e+000  0.0000000e+000  0.0000000e+000  0.0000000e+000  2.8619520e-002  2.8619520e-002  2.8619520e-002 
 1.2500000e-001  0.0000000e+000  0.0000000e+000  0.0000000e+000  0.0000000e+000  2.8244302e-002  2.8244302e-002  2.8244302e-002 
 1.7500001e-001  0.0000000e+000  0.0000000e+000  0.0000000e+000  0.0000000e+000  2.7644049e-002  2.7644049e-002  2.7644049e-002 
 2.2500005e-001  0.0000000e+000  0.0000000e+000  0.0000000e+000  0.0000000e+000  2.6905501e-002  2.6905501e-002  2.6905501e-002 
 2.7500010e-001  0.0000000e+000  0.0000000e+000  0.0000000e+000  0.0000000e+000  2.6089774e-002  2.6089774e-002  2.6089774e-002 
 3.2500011e-001  0.0000000e+000  0.0000000e+000  0.0000000e+000  0.0000000e+000  2.5401827e-002  2.5401827e-002  2.5401827e-002 
 3.7500012e-001  0.0000000e+000  0.0000000e+000  0.0000000e+000  0.0000000e+000  2.5096366e-002  2.5096366e-002  2.5096366e-002 
 4.2500010e-001  0.0000000e+000  0.0000000e+000  0.0000000e+000  0.0000000e+000  2.5339985e-002  2.5339985e-002  2.5339985e-002 
 4.7500011e-001  0.0000000e+000  0.0000000e+000  0.0000000e+000  0.0000000e+000  2.6079243e-002  2.6079243e-002  2.6079243e-002 
 5.2500015e-001  0.0000000e+000  0.0000000e+000  0.0000000e+000  0.0000000e+000  2.7109075e-002  2.7109075e-002  2.7109075e-002 
 5.7500029e-001  0.0000000e+000  0.0000000e+000  0.0000000e+000  0.0000000e+000  2.8753567e-002  2.8753567e-002  2.8753567e-002 
 6.2500030e-001  0.0000000e+000  0.0000000e+000  0.0000000e+000  0.0000000e+000  2.9703485e-002  2.9703485e-002  2.9703485e-002 
 6.7500031e-001  0.0000000e+000  0.0000000e+000  0.0000000e+000  0.0000000e+000  2.9321771e-002  2.9321771e-002  2.9321771e-002 
 7.2500044e-001  0.0000000e+000  0.0000000e+000  0.0000000e+000  0.0000000e+000  2.7510181e-002  2.7510181e-002  2.7510181e-002 
 7.7500045e-001  0.0000000e+000  0.0000000e+000  0.0000000e+000  0.0000000e+000  2.4901016e-002  2.4901016e-002  2.4901016e-002 
 8.2500052e-001  0.0000000e+000  0.0000000e+000  0.0000000e+000  0.0000000e+000  2.2508040e-002  2.2508040e-002  2.2508040e-002 
 8.7500066e-001  0.0000000e+000  0.0000000e+000  0.0000000e+000  0.0000000e+000  2.1011608e-002  2.1011608e-002  2.1011608e-002 
 9.2500079e-001  0.0000000e+000  0.0000000e+000  0.0000000e+000  0.0000000e+000  2.0371789e-002  2.0371789e-002  2.0371789e-002 
 9.7500038e-001  0.0000000e+000  0.0000000e+000  0.0000000e+000  0.0000000e+000  2.0358684e-002  2.0358684e-002  2.0358684e-002 
 1.0000000e+000  0.0000000e+000  0.0000000e+000  0.0000000e+000  0.0000000e+000  2.0352131e-002  2.0352131e-002  2.0352131e-002 
 0.0000000e+000  2.5000004e-002  0.0000000e+000  0.0000000e+000  0.0000000e+000  2.8862001e-002  2.8862001e-002  2.8862001e-002 
 2.5000004e-002  2.5000004e-002  1.6623896e-003 -1.5976580e-003  2.3056562e-003  2.8793817e-002  2.8793817e-002  2.8796475e-002 
 7.5000003e-002  2.5000004e-002  4.5479937e-003 -1.8441663e-003  4.9076672e-003  2.8657451e-002  2.8657451e-002  2.8669493e-002 
 1.2500000e-001  2.5000004e-002  5.9722029e-003 -1.1046156e-003  6.0734982e-003  2.8304538e-002  2.8304538e-002  2.8322982e-002 
 1.7500001e-001  2.5000004e-002  4.5192344e-003 -8.4374426e-004  4.5973235e-003  2.7779646e-002  2.7779646e-002  2.7790213e-002 
 2.2500005e-001  2.5000004e-002 -3.1990188e-004 -4.4174338e-004  5.4541219e-004  2.7123623e-002  2.7123623e-002  2.7123772e-002 
 2.7500010e-001  2.5000004e-002 -9.1899326e-003  8.8972179e-004  9.2329010e-003  2.6349738e-002  2.6349738e-002  2.6392361e-002 
 3.2500011e-001  2.5000004e-002 -2.2610843e-002  3.4879728e-003  2.2878291e-002  2.5599966e-002  2.5599966e-002  2.5861673e-002 
 3.7500012e-001  2.5000004e-002 -3.9453391e-002  6.6393237e-003  4.0008131e-002  2.5110716e-002  2.5110716e-002  2.5911041e-002 
 4.2500010e-001  2.5000004e-002 -5.6151453e-002  8.5079828e-003  5.6792352e-002  2.5098531e-002  2.5098531e-002  2.6711216e-002 
 4.7500011e-001  2.5000004e-002 -6.7884497e-002  7.0758061e-003  6.8252265e-002  2.5657041e-002  2.5657041e-002  2.7986227e-002 
 5.2500015e-001  2.5000004e-002 -7.0758946e-002  2.7732898e-003  7.0813276e-002  2.6726805e-002  2.6726805e-002  2.9234065e-002 
 5.7500029e-001  2.5000004e-002 -6.2563352e-002 -4.4166867e-004  6.2564909e-002  2.8232191e-002  2.8232191e-002  3.0189374e-002 
 6.2500030e-001  2.5000004e-002 -4.3477640e-002 -4.1182577e-003  4.3672249e-002  2.9163137e-002  2.9163137e-002  3.0116770e-002 
 6.7500031e-001  2.5000004e-002 -1.8339705e-002 -5.8271331e-003  1.9243186e-002  2.8810639e-002  2.8810639e-002  2.8995790e-002 
 7.2500044e-001  2.5000004e-002  7.0858514e-003 -4.0495400e-003  8.1613762e-003  2.7014935e-002  2.7014935e-002  2.7048239e-002 
 7.7500045e-001  2.5000004e-002  2.5647959e-002  6.1067462e-004  2.5655229e-002  2.4430361e-002  2.4430361e-002  2.4759457e-002 
 8.2500052e-001  2.5000004e-002  3.1534366e-002  5.1698787e-003  3.1955343e-002  2.2122208e-002  2.2122208e-002  2.2632780e-002 
 8.7500066e-001  2.5000004e-002  2.4637612e-002  6.8968423e-003  2.5584729e-002  2.0764709e-002  2.0764709e-002  2.1091998e-002 
 9.2500079e-001  2.5000004e-002  1.1932219e-002  5.7378556e-003  1.3240122e-002  2.0274257e-002  2.0274257e-002  2.0361908e-002 
 9.7500038e-001  2.5000004e-002  2.0799397e-003  2.7271120e-003  3.4297651e-003  2.0329008e-002  2.0329008e-002  2.0334890e-002 
 1.0000000e+000  2.5000004e-002  0.0000000e+000  0.0000000e+000  0.0000000e+000  2.0356385e-002  2.0356385e-002  2.0356385e-002 
 0.0000000e+000  7.5000003e-002  0.0000000e+000  0.0000000e+000  0.0000000e+000  2.8983394e-002  2.8983394e-002  2.8983394e-002 
 2.5000004e-002  7.5000003e-002  2.2175352e-003 -4.9430854e-003  5.4177074e-003  2.8900035e-002  2.8900035e-002  2.8914711e-002 
 7.5000003e-002  7.5000003e-002  3.8993983e-003 -4.2365836e-003  5.7579465e-003  2.8733311e-002  2.8733311e-002  2.8749889e-002 
 1.2500000e-001  7.5000003e-002  1.3036234e-004  1.1391995e-003  1.1466341e-003  2.8425010e-002  2.8425010e-002  2.8425667e-002 
 1.7500001e-001  7.5000003e-002 -1.1865684e-002  7.5102360e-003  1.4042724e-002  2.8050844e-002  2.8050844e-002  2.8149443e-002 
 2.2500005e-001  7.5000003e-002 -3.3740941e-002  1.5199959e-002  3.7006620e-002  2.7559869e-002  2.7559869e-002  2.8244615e-002 
 2.7500010e-001  7.5000003e-002 -6.4696968e-002  2.3887552e-002  6.8966024e-002  2.6869666e-002  2.6869666e-002  2.9247822e-002 
 3.2500011e-001  7.5000003e-002 -1.0010326e-001  3.0498568e-002  1.0464619e-001  2.5996244e-002  2.5996244e-002  3.1471655e-002 
 3.7500012e-001  7.5000003e-002 -1.3303839e-001  3.1298444e-002  1.3667043e-001  2.5139416e-002  2.5139416e-002  3.4478817e-002 
 4.2500010e-001  7.5000003e-002 -1.5750121e-001  2.4561068e-002  1.5940475e-001  2.4615627e-002  2.4615627e-002  3.7320565e-002 
 4.7500011e-001  7.5000003e-002 -1.6959092e-001  1.1217897e-002  1.6996153e-001  2.4812637e-002  2.4812637e-002  3.9256096e-002 
 5.2500015e-001  7.5000003e-002 -1.6736275e-001 -5.7510780e-003  1.6746153e-001  2.5962263e-002  2.5962263e-002  3.9983947e-002 
 5.7500029e-001  7.5000003e-002 -1.5212156e-001 -2.2688527e-002  1.5380421e-001  2.7189437e-002  2.7189437e-002  3.9017305e-002 
 6.2500030e-001  7.5000003e-002 -1.2443892e-001 -3.6715675e-002  1.2974238e-001  2.8082445e-002  2.8082445e-002  3.6498986e-002 
 6.7500031e-001  7.5000003e-002 -8.6896211e-002 -4.3254167e-002  9.7066343e-002  2.7788375e-002  2.7788375e-002  3.2499313e-002 
 7.2500044e-001  7.5000003e-002 -4.4542711e-002 -3.8773101e-002  5.9054267e-002  2.6024440e-002  2.6024440e-002  2.7768144e-002 
 7.7500045e-001  7.5000003e-002 -4.6955473e-003 -2.2896254e-002  2.3372775e-002  2.3489045e-002  2.3489045e-002  2.3762189e-002 
 8.2500052e-001  7.5000003e-002  2.2963969e-002 -1.7078092e-003  2.3027385e-002  2.1350538e-002  2.1350538e-002  2.1615669e-002 
 8.7500066e-001  7.5000003e-002  2.9844789e-002  1.4146851e-002  3.3027939e-002  2.0270910e-002  2.0270910e-002  2.0816332e-002 
 9.2500079e-001  7.5000003e-002  1.8690417e-002  1.9231578e-002  2.6817629e-002  2.0079197e-002  2.0079197e-002  2.0438790e-002 
 9.7500038e-001  7.5000003e-002  3.7826784e-003  1.1813967e-002  1.2404777e-002  2.0269662e-002  2.0269662e-002  2.0346601e-002 
 1.0000000e+000  7.5000003e-002  0.0000000e+000  0.0000000e+000  0.0000000e+000  2.0364895e-002  2.0364895e-002  2.0364895e-002 
 0.0000000e+000  1.2500000e-001  0.0000000e+000  0.0000000e+000  0.0000000e+000  2.9447949e-002  2.9447949e-002  2.9447949e-002 
 2.5000004e-002  1.2500000e-001  9.6827094e-004 -5.9804567e-003  6.0583339e-003  2.9317124e-002  2.9317124e-002  2.9335475e-002 
 7.5000003e-002  1.2500000e-001 -4.7880649e-003  4.8822048e-004  4.8128916e-003  2.9055474e-002  2.9055474e-002  2.9067056e-002 
 1.2500000e-001  1.2500000e-001 -2.0522229e-002  1.5526176e-002  2.5733715e-002  2.8711740e-002  2.8711740e-002  2.9042851e-002 
 1.7500001e-001  1.2500000e-001 -4.8650682e-002  3.3607442e-002  5.9129935e-002  2.8230323e-002  2.8230323e-002  2.9978497e-002 
 2.2500005e-001  1.2500000e-001 -8.8637650e-002  5.1866472e-002  1.0269744e-001  2.7422937e-002  2.7422937e-002  3.2696318e-002 
 2.7500010e-001  1.2500000e-001 -1.3480304e-001  6.5613717e-002  1.4992338e-001  2.6078515e-002  2.6078515e-002  3.7317026e-002 
 3.2500011e-001  1.2500000e-001 -1.7925829e-001  6.9521122e-002  1.9226731e-001  2.4257805e-002  2.4257805e-002  4.2741165e-002 
 3.7500012e-001  1.2500000e-001 -2.1574681e-001  6.1390042e-002  2.2431099e-001  2.2344735e-002  2.2344735e-002  4.7502447e-002 
 4.2500010e-001  1.2500000e-001 -2.4122129e-001  4.2590901e-002  2.4495244e-001  2.0872528e-002  2.0872528e-002  5.0873376e-002 
 4.7500011e-001  1.2500000e-001 -2.5462604e-001  1.6286047e-002  2.5514632e-001  2.0330554e-002  2.0330554e-002  5.2880380e-002 
 5.2500015e-001  1.2500000e-001 -2.5542504e-001 -1.4176158e-002  2.5581813e-001  2.0977864e-002  2.0977864e-002  5.3699322e-002 
 5.7500029e-001  1.2500000e-001 -2.4330722e-001 -4.5414962e-002  2.4750943e-001  2.2426864e-002  2.2426864e-002  5.3057324e-002 
 6.2500030e-001  1.2500000e-001 -2.1796946e-001 -7.2047055e-002  2.2956799e-001  2.3945009e-002  2.3945009e-002  5.0295740e-002 
 6.7500031e-001  1.2500000e-001 -1.7968789e-001 -8.8295177e-002  2.0020933e-001  2.4635272e-002  2.4635272e-002  4.4677161e-002 
 7.2500044e-001  1.2500000e-001 -1.3027807e-001 -8.7665595e-002  1.5702748e-001  2.3912769e-002  2.3912769e-002  3.6241584e-002 
 7.7500045e-001  1.2500000e-001 -7.4784182e-002 -6.6136256e-002  9.9833250e-002  2.2126179e-002  2.2126179e-002  2.7109519e-002 
 8.2500052e-001  1.2500000e-001 -2.3399686e-002 -2.8016733e-002  3.6503188e-002  2.0403748e-002  2.0403748e-002  2.1069990e-002 
 8.7500066e-001  1.2500000e-001  8.1566665e-003  9.5587494e-003  1.2565862e-002  1.9471766e-002  1.9471766e-002  1.9550717e-002 
 9.2500079e-001  1.2500000e-001  1.1688015e-002  2.8469406e-002  3.0775262e-002  1.9285152e-002  1.9285152e-002  1.9758711e-002 
 9.7500038e-001  1.2500000e-001  2.2962517e-003  2.0831374e-002  2.0957550e-002  1.9503254e-002  1.9503254e-002  1.9722864e-002 
 1.0000000e+000  1.2500000e-001  0.0000000e+000  0.0000000e+000  0.0000000e+000  1.9612305e-002  1.9612305e-002  1.9612305e-002 
 0.0000000e+000  1.7500001e-001  0.0000000e+000  0.0000000e+000  0.0000000e+000  3.0210897e-002  3.0210897e-002  3.0210897e-002 
 2.5000004e-002  1.7500001e-001 -1.5929185e-003  1.5990552e-004  1.6009245e-003  3.0001190e-002  3.0001190e-002  3.0002471e-002 
 7.5000003e-002  1.7500001e-001 -1.8999649e-002  1.8021440e-002  2.6187001e-002  2.9581774e-002  2.9581774e-002  2.9924653e-002 
 1.2500000e-001  1.7500001e-001 -4.9349543e-002  4.5733809e-002  6.7282677e-002  2.8999206e-002  2.8999206e-002  3.1262685e-002 
 1.7500001e-001  1.7500001e-001 -9.2060402e-002  7.5762719e-002  1.1922713e-001  2.7910428e-002  2.7910428e-002  3.5017982e-002 
 2.2500005e-001  1.7500001e-001 -1.4311823e-001  1.0082997e-001  1.7507002e-001  2.5941668e-002  2.5941668e-002  4.1266423e-002 
 2.7500010e-001  1.7500001e-001 -1.9450040e-001  1.1374512e-001  2.2531836e-001  2.2864740e-002  2.2864740e-002  4.8248921e-002 
 3.2500011e-001  1.7500001e-001 -2.3932059e-001  1.1051530e-001  2.6360571e-001  1.8986499e-002  1.8986499e-002  5.3730488e-002 
 3.7500012e-001  1.7500001e-001 -2.7413282e-001  9.2021629e-002  2.8916568e-001  1.5042186e-002  1.5042186e-002  5.6850579e-002 
 4.2500010e-001  1.7500001e-001 -2.9825261e-001  6.1773516e-002  3.0458266e-001  1.1855407e-002  1.1855407e-002  5.8240701e-002 
 4.7500011e-001  1.7500001e-001 -3.1206414e-001  2.3632603e-002  3.1295770e-001  1.0055695e-002  1.0055695e-002  5.9026960e-002 
 5.2500015e-001  1.7500001e-001 -3.1596974e-001 -1.8952860e-002  3.1653765e-001  9.9626407e-003  9.9626407e-003  6.0060684e-002 
 5.7500029e-001  1.7500001e-001 -3.0994660e-001 -6.2633082e-002  3.1621164e-001  1.1479419e-002  1.1479419e-002  6.1474316e-002 
 6.2500030e-001  1.7500001e-001 -2.9293945e-001 -1.0293242e-001  3.1049734e-001  1.4076019e-002  1.4076019e-002  6.2280323e-002 
 6.7500031e-001  1.7500001e-001 -2.6263711e-001 -1.3343854e-001  2.9459140e-001  1.6842104e-002  1.6842104e-002  6.0234152e-002 
 7.2500044e-001  1.7500001e-001 -2.1670362e-001 -1.4530775e-001  2.6091149e-001  1.8831560e-002  1.8831560e-002  5.2868962e-002 
 7.7500045e-001  1.7500001e-001 -1.5504847e-001 -1.2911323e-001  2.0176782e-001  1.9559355e-002  1.9559355e-002  3.9914481e-002 
 8.2500052e-001  1.7500001e-001 -8.4217437e-002 -8.1531167e-002  1.1721735e-001  1.9388707e-002  1.9388707e-002  2.6258660e-002 
 8.7500066e-001  1.7500001e-001 -2.2552339e-002 -1.7323099e-002  2.8437613e-002  1.8976841e-002  1.8976841e-002  1.9381190e-002 
 9.2500079e-001  1.7500001e-001  4.0407274e-003  2.6359661e-002  2.6667569e-002  1.8515823e-002  1.8515823e-002  1.8871402e-002 
 9.7500038e-001  1.7500001e-001  2.7053820e-003  2.5709735e-002  2.5851684e-002  1.8414889e-002  1.8414889e-002  1.8749043e-002 
 1.0000000e+000  1.7500001e-001  0.0000000e+000  0.0000000e+000  0.0000000e+000  1.8364422e-002  1.8364422e-002  1.8364422e-002 
 0.0000000e+000  2.2500005e-001  0.0000000e+000  0.0000000e+000  0.0000000e+000  3.0849518e-002  3.0849518e-002  3.0849518e-002 
 2.5000004e-002  2.2500005e-001 -4.8165484e-003  1.5875030e-002  1.6589627e-002  3.0539963e-002  3.0539963e-002  3.0677572e-002 
 7.5000003e-002  2.2500005e-001 -3.4196630e-002  4.8756797e-002  5.9553631e-002  2.9920856e-002  2.9920856e-002  3.1694174e-002 
 1.2500000e-001  2.2500005e-001 -7.5973287e-002  8.8440016e-002  1.1659150e-001  2.8746953e-002  2.8746953e-002  3.5543740e-002 
 1.7500001e-001  2.2500005e-001 -1.2643863e-001  1.2672815e-001  1.7901607e-001  2.6283247e-002  2.6283247e-002  4.2306624e-002 
 2.2500005e-001  2.2500005e-001 -1.7961295e-001  1.5310772e-001  2.3601438e-001  2.2091139e-002  2.2091139e-002  4.9942531e-002 
 2.7500010e-001  2.2500005e-001 -2.2765173e-001  1.6049495e-001  2.7853894e-001  1.6204981e-002  1.6204981e-002  5.4996952e-002 
 3.2500011e-001  2.2500005e-001 -2.6587307e-001  1.4779857e-001  3.0419222e-001  9.4387867e-003  9.4387867e-003  5.5705242e-002 
 3.7500012e-001  2.2500005e-001 -2.9319528e-001  1.1886199e-001  3.1637263e-001  2.9508437e-003  2.9508437e-003  5.2996665e-002 
 4.2500010e-001  2.2500005e-001 -3.1089762e-001  7.8845412e-002  3.2073966e-001 -2.2247678e-003 -2.2247678e-003  4.9212195e-002 
 4.7500011e-001  2.2500005e-001 -3.2118908e-001  3.2098360e-002  3.2278898e-001 -5.4111639e-003 -5.4111639e-003  4.6685200e-002 
 5.2500015e-001  2.2500005e-001 -3.2603243e-001 -1.8330162e-002  3.2654729e-001 -6.3002277e-003 -6.3002277e-003  4.7016341e-002 
 5.7500029e-001  2.2500005e-001 -3.2625103e-001 -7.0284531e-002  3.3373591e-001 -4.8701530e-003 -4.8701530e-003  5.0819673e-002 
 6.2500030e-001  2.2500005e-001 -3.2095012e-001 -1.2133322e-001  3.4311911e-001 -1.4039570e-003 -1.4039570e-003  5.7461407e-002 
 6.7500031e-001  2.2500005e-001 -3.0652219e-001 -1.6670792e-001  3.4892318e-001  3.4846577e-003  3.4846577e-003  6.4358346e-002 
 7.2500044e-001  2.2500005e-001 -2.7712274e-001 -1.9744889e-001  3.4026912e-001  8.9093121e-003  8.9093121e-003  6.6800848e-002 
 7.7500045e-001  2.2500005e-001 -2.2623684e-001 -1.9995522e-001  3.0193576e-001  1.3767041e-002  1.3767041e-002  5.9349641e-002 
 8.2500052e-001  2.2500005e-001 -1.5193050e-001 -1.6021968e-001  2.2080132e-001  1.7034151e-002  1.7034151e-002  4.1410763e-002 
 8.7500066e-001  2.2500005e-001 -6.5998659e-002 -7.8336157e-002  1.0243230e-001  1.8303951e-002  1.8303951e-002  2.3550140e-002 
 9.2500079e-001  2.2500005e-001 -3.1569023e-003  6.6864435e-003  7.3942249e-003  1.7928462e-002  1.7928462e-002  1.7955801e-002 
 9.7500038e-001  2.2500005e-001  6.8129967e-003  2.8558567e-002  2.9359985e-002  1.7053757e-002  1.7053757e-002  1.7484762e-002 
 1.0000000e+000  2.2500005e-001  0.0000000e+000  0.0000000e+000  0.0000000e+000  1.6616410e-002  1.6616410e-002  1.6616410e-002 
 0.0000000e+000  2.7500010e-001  0.0000000e+000  0.0000000e+000  0.0000000e+000  3.0699208e-002  3.0699208e-002  3.0699208e-002 
 2.5000004e-002  2.7500010e-001 -6.9163521e-003  3.9856829e-002  4.0452477e-002  3.0249622e-002  3.0249622e-002  3.1067824e-002 
 7.5000003e-002  2.7500010e-001 -4.4619087e-002  8.8556424e-002  9.9162005e-002  2.9350448e-002  2.9350448e-002  3.4267001e-002 
 1.2500000e-001  2.7500010e-001 -9.1519937e-002  1.3688949e-001  1.6466521e-001  2.7163256e-002  2.7163256e-002  4.0720571e-002 
 1.7500001e-001  2.7500010e-001 -1.4211288e-001  1.7832710e-001  2.2802769e-001  2.2646494e-002  2.2646494e-002  4.8644807e-002 
 2.2500005e-001  2.7500010e-001 -1.9004747e-001  2.0086202e-001  2.7652052e-001  1.5570929e-002  1.5570929e-002  5.3802725e-002 
 2.7500010e-001  2.7500010e-001 -2.2871839e-001  1.9915037e-001  3.0327046e-001  6.5595261e-003  6.5595261e-003  5.2546009e-002 
 3.2500011e-001  2.7500010e-001 -2.5557959e-001  1.7553684e-001  3.1005502e-001 -2.9241666e-003 -2.9241666e-003  4.5142889e-002 
 3.7500012e-001  2.7500010e-001 -2.7161840e-001  1.3682146e-001  3.0413264e-001 -1.1404478e-002 -1.1404478e-002  3.4843855e-002 
 4.2500010e-001  2.7500010e-001 -2.8006431e-001  8.9823231e-002  2.9411602e-001 -1.7881287e-002 -1.7881287e-002  2.5370829e-002 
 4.7500011e-001  2.7500010e-001 -2.8461230e-001  3.9088808e-002  2.8728399e-001 -2.1866636e-002 -2.1866636e-002  1.9399412e-002 
 5.2500015e-001  2.7500010e-001 -2.8809935e-001 -1.3417808e-002  2.8841165e-001 -2.3244096e-002 -2.3244096e-002  1.8346541e-002 
 5.7500029e-001  2.7500010e-001 -2.9194480e-001 -6.7362383e-002  2.9961550e-001 -2.2100639e-002 -2.2100639e-002  2.2784090e-002 
 6.2500030e-001  2.7500010e-001 -2.9590026e-001 -1.2273081e-001  3.2034329e-001 -1.8548243e-002 -1.8548243e-002  3.2761663e-002 
 6.7500031e-001  2.7500010e-001 -2.9745477e-001 -1.7791976e-001  3.4660465e-001 -1.2778413e-002 -1.2778413e-002  4.7288980e-002 
 7.2500044e-001  2.7500010e-001 -2.9047871e-001 -2.2693945e-001  3.6861822e-001 -5.1601874e-003 -5.1601874e-003  6.2779509e-002 
 7.7500045e-001  2.7500010e-001 -2.6463243e-001 -2.5622517e-001  3.6834991e-001  3.4484698e-003  3.4484698e-003  7.1289301e-002 
 8.2500052e-001  2.7500010e-001 -2.0868519e-001 -2.4379317e-001  3.2091218e-001  1.1220230e-002  1.1220230e-002  6.2712543e-002 
 8.7500066e-001  2.7500010e-001 -1.2046050e-001 -1.6881810e-001  2.0738921e-001  1.5922662e-002  1.5922662e-002  3.7427802e-002 
 9.2500079e-001  2.7500010e-001 -2.3448007e-002 -4.3929696e-002  4.9795855e-002  1.7056148e-002  1.7056148e-002  1.8295962e-002 
 9.7500038e-001  2.7500010e-001  1.2850018e-002  2.8018320e-002  3.0824490e-002  1.4739252e-002  1.4739252e-002  1.5214326e-002 
 1.0000000e+000  2.7500010e-001  0.0000000e+000  0.0000000e+000  0.0000000e+000  1.3580815e-002  1.3580815e-002  1.3580815e-002 
 0.0000000e+000  3.2500011e-001  0.0000000e+000  0.0000000e+000  0.0000000e+000  2.9077888e-002  2.9077888e-002  2.9077888e-002 
 2.5000004e-002  3.2500011e-001 -6.6986075e-003  6.8074353e-002  6.8403132e-002  2.8458476e-002  2.8458476e-002  3.0797971e-002 
 7.5000003e-002  3.2500011e-001 -4.7117159e-002  1.3155201e-001  1.3973531e-001  2.7219655e-002  2.7219655e-002  3.6982633e-002 
 1.2500000e-001  3.2500011e-001 -9.2805497e-002  1.8440524e-001  2.0644164e-001  2.3776062e-002  2.3776062e-002  4.5085140e-002 
 1.7500001e-001  3.2500011e-001 -1.3784274e-001  2.2424464e-001  2.6322287e-001  1.7040927e-002  1.7040927e-002  5.1684067e-002 
 2.2500005e-001  3.2500011e-001 -1.7648564e-001  2.3906256e-001  2.9714996e-001  7.2523872e-003  7.2523872e-003  5.1401433e-002 
 2.7500010e-001  3.2500011e-001 -2.0378064e-001  2.2611347e-001  3.0439094e-001 -4.2140805e-003 -4.2140805e-003  4.2112842e-002 
 3.2500011e-001  3.2500011e-001 -2.1920988e-001  1.9139276e-001  2.9100543e-001 -1.5344201e-002 -1.5344201e-002  2.6997881e-002 
 3.7500012e-001  3.2500011e-001 -2.2561871e-001  1.4454189e-001  2.6794806e-001 -2.4619156e-002 -2.4619156e-002  1.1278923e-002 
 4.2500010e-001  3.2500011e-001 -2.2746268e-001  9.3513444e-002  2.4593502e-001 -3.1352285e-002 -3.1352285e-002 -1.1102679e-003 
 4.7500011e-001  3.2500011e-001 -2.2842094e-001  4.2247273e-002  2.3229498e-001 -3.5418715e-002 -3.5418715e-002 -8.4382361e-003 
 5.2500015e-001  3.2500011e-001 -2.3052324e-001 -8.7310271e-003  2.3068853e-001 -3.6930360e-002 -3.6930360e-002 -1.0321761e-002 
 5.7500029e-001  3.2500011e-001 -2.3476689e-001 -6.0431417e-002  2.4241997e-001 -3.6085181e-002 -3.6085181e-002 -6.7014578e-003 
 6.2500030e-001  3.2500011e-001 -2.4136856e-001 -1.1409127e-001  2.6697490e-001 -3.2949321e-002 -3.2949321e-002  2.6884794e-003 
 6.7500031e-001  3.2500011e-001 -2.5027660e-001 -1.7081106e-001  3.0300957e-001 -2.7486740e-002 -2.7486740e-002  1.8420655e-002 
 7.2500044e-001  3.2500011e-001 -2.5881067e-001 -2.2953430e-001  3.4593201e-001 -1.9637564e-002 -1.9637564e-002  4.0196914e-002 
 7.7500045e-001  3.2500011e-001 -2.5853917e-001 -2.8212231e-001  3.8266891e-001 -9.5569920e-003 -9.5569920e-003  6.3660756e-002 
 8.2500052e-001  3.2500011e-001 -2.3362398e-001 -3.0633909e-001  3.8525811e-001  1.5588452e-003  1.5588452e-003  7.5770743e-002 
 8.7500066e-001  3.2500011e-001 -1.6733530e-001 -2.6491880e-001  3.1334180e-001  1.0744696e-002  1.0744696e-002  5.9836235e-002 
 9.2500079e-001  3.2500011e-001 -6.3782476e-002 -1.3144436e-001  1.4610210e-001  1.4499617e-002  1.4499617e-002  2.5172530e-002 
 9.7500038e-001  3.2500011e-001  1.0823186e-002  1.7538376e-002  2.0609124e-002  1.1576741e-002  1.1576741e-002  1.1789109e-002 
 1.0000000e+000  3.2500011e-001  0.0000000e+000  0.0000000e+000  0.0000000e+000  1.0115317e-002  1.0115317e-002  1.0115317e-002 
 0.0000000e+000  3.7500012e-001  0.0000000e+000  0.0000000e+000  0.0000000e+000  2.5817126e-002  2.5817126e-002  2.5817126e-002 
 2.5000004e-002  3.7500012e-001 -4.1226507e-003  9.5331796e-002  9.5420897e-002  2.5039898e-002  2.5039898e-002  2.9592471e-002 
 7.5000003e-002  3.7500012e-001 -4.1703980e-002  1.7211188e-001  1.7709242e-001  2.3485444e-002  2.3485444e-002  3.9166305e-002 
 1.2500000e-001  3.7500012e-001 -8.1397980e-002  2.2613089e-001  2.4033479e-001  1.8850537e-002  1.8850537e-002  4.7730941e-002 
 1.7500001e-001  3.7500012e-001 -1.1785569e-001  2.6124179e-001  2.8659594e-001  1.0276302e-002  1.0276302e-002  5.1344920e-002 
 2.2500005e-001  3.7500012e-001 -1.4640100e-001  2.6662013e-001  3.0417025e-001 -1.4556261e-003 -1.4556261e-003  4.4804148e-002 
 2.7500010e-001  3.7500012e-001 -1.6387302e-001  2.4250230e-001  2.9268026e-001 -1.4298497e-002 -1.4298497e-002  2.8532369e-002 
 3.2500011e-001  3.7500012e-001 -1.7150065e-001  1.9843459e-001  2.6227611e-001 -2.5960205e-002 -2.5960205e-002  8.4341755e-003 
 3.7500012e-001  3.7500012e-001 -1.7332759e-001  1.4626443e-001  2.2679448e-001 -3.5143491e-002 -3.5143491e-002 -9.4256205e-003 
 4.2500010e-001  3.7500012e-001 -1.7379870e-001  9.3844377e-002  1.9751647e-001 -4.1577991e-002 -4.1577991e-002 -2.2071615e-002 
 4.7500011e-001  3.7500012e-001 -1.7526925e-001  4.3419253e-002  1.8056728e-001 -4.5450702e-002 -4.5450702e-002 -2.9148431e-002 
 5.2500015e-001  3.7500012e-001 -1.7806545e-001 -5.9198467e-003  1.7816383e-001 -4.6980031e-002 -4.6980031e-002 -3.1108856e-002 
 5.7500029e-001  3.7500012e-001 -1.8202846e-001 -5.5448592e-002  1.9028638e-001 -4.6325032e-002 -4.6325032e-002 -2.8220579e-002 
 6.2500030e-001  3.7500012e-001 -1.8734533e-001 -1.0606295e-001  2.1528497e-001 -4.3553762e-002 -4.3553762e-002 -2.0379951e-002 
 6.7500031e-001  3.7500012e-001 -1.9511357e-001 -1.5917984e-001  2.5180852e-001 -3.8638290e-002 -3.8638290e-002 -6.9345273e-003 
 7.2500044e-001  3.7500012e-001 -2.0647196e-001 -2.1718237e-001  2.9966456e-001 -3.1451184e-002 -3.1451184e-002  1.3448242e-002 
 7.7500045e-001  3.7500012e-001 -2.1941002e-001 -2.8012556e-001  3.5582450e-001 -2.1791633e-002 -2.1791633e-002  4.1513909e-002 
 8.2500052e-001  3.7500012e-001 -2.2198923e-001 -3.3486426e-001  4.0176272e-001 -9.8005198e-003 -9.8005198e-003  7.0906125e-002 
 8.7500066e-001  3.7500012e-001 -1.8943188e-001 -3.4035647e-001  3.8952145e-001  2.7715284e-003  2.7715284e-003  7.8635007e-002 
 9.2500079e-001  3.7500012e-001 -1.0435894e-001 -2.3321578e-001  2.5550026e-001  1.0374716e-002  1.0374716e-002  4.3014910e-002 
 9.7500038e-001  3.7500012e-001 -4.6360898e-003 -1.3733683e-002  1.4495081e-002  8.6210985e-003  8.6210985e-003  8.7261526e-003 
 1.0000000e+000  3.7500012e-001  0.0000000e+000  0.0000000e+000  0.0000000e+000  7.7443002e-003  7.7443002e-003  7.7443002e-003 
 0.0000000e+000  4.2500010e-001  0.0000000e+000  0.0000000e+000  0.0000000e+000  2.1453097e-002  2.1453097e-002  2.1453097e-002 
 2.5000004e-002  4.2500010e-001  1.7384696e-004  1.1696794e-001  1.1696807e-001  2.0571712e-002  2.0571712e-002  2.7412476e-002 
 7.5000003e-002  4.2500010e-001 -3.0118488e-002  2.0583867e-001  2.0803048e-001  1.8808944e-002  1.8808944e-002  4.0447284e-002 
 1.2500000e-001  4.2500010e-001 -6.0955063e-002  2.5933626e-001  2.6640350e-001  1.3261651e-002  1.3261651e-002  4.8747059e-002 
 1.7500001e-001  4.2500010e-001 -8.7864727e-002  2.8866613e-001  3.0174220e-001  3.4922925e-003  3.4922925e-003  4.9016465e-002 
 2.2500005e-001  4.2500010e-001 -1.0739452e-001  2.8516605e-001  3.0471835e-001 -9.2981504e-003 -9.2981504e-003  3.7128478e-002 
 2.7500010e-001  4.2500010e-001 -1.1797617e-001  2.5197724e-001  2.7822816e-001 -2.2632765e-002 -2.2632765e-002  1.6072687e-002 
 3.2500011e-001  4.2500010e-001 -1.2184751e-001  2.0166475e-001  2.3561725e-001 -3.4202315e-002 -3.4202315e-002 -6.4445720e-003 
 3.7500012e-001  4.2500010e-001 -1.2309671e-001  1.4727151e-001  1.9194192e-001 -4.3028910e-002 -4.3028910e-002 -2.4608061e-002 
 4.2500010e-001  4.2500010e-001 -1.2503831e-001  9.5401123e-002  1.5727668e-001 -4.9163811e-002 -4.9163811e-002 -3.6795836e-002 
 4.7500011e-001  4.2500010e-001 -1.2847663e-001  4.6128072e-002  1.3650657e-001 -5.2921012e-002 -5.2921012e-002 -4.3603990e-002 
 5.2500015e-001  4.2500010e-001 -1.3276561e-001 -2.5316998e-003  1.3278975e-001 -5.4481473e-002 -5.4481473e-002 -4.5664914e-002 
 5.7500029e-001  4.2500010e-001 -1.3734908e-001 -5.1608164e-002  1.4672482e-001 -5.3920966e-002 -5.3920966e-002 -4.3156877e-002 
 6.2500030e-001  4.2500010e-001 -1.4219818e-001 -1.0118528e-001  1.7452444e-001 -5.1281061e-002 -5.1281061e-002 -3.6051672e-002 
 6.7500031e-001  4.2500010e-001 -1.4771068e-001 -1.5148522e-001  2.1158029e-001 -4.6615679e-002 -4.6615679e-002 -2.4232570e-002 
 7.2500044e-001  4.2500010e-001 -1.5560782e-001 -2.0447484e-001  2.5695089e-001 -3.9929718e-002 -3.9929718e-002 -6.9178417e-003 
 7.7500045e-001  4.2500010e-001 -1.6884139e-001 -2.6513115e-001  3.1432775e-001 -3.1115193e-002 -3.1115193e-002  1.8285777e-002 
 8.2500052e-001  4.2500010e-001 -1.8537590e-001 -3.3416057e-001  3.8213545e-001 -1.9921629e-002 -1.9921629e-002  5.3092126e-002 
 8.7500066e-001  4.2500010e-001 -1.8348667e-001 -3.8249409e-001  4.2422763e-001 -6.1132270e-003 -6.1132270e-003  8.3871320e-002 
 9.2500079e-001  4.2500010e-001 -1.2883538e-001 -3.2603958e-001  3.5057148e-001  6.4114761e-003  6.4114761e-003  6.7861661e-002 
 9.7500038e-001  4.2500010e-001 -3.2318030e-002 -7.8709967e-002  8.5086510e-002  7.5370027e-003  7.5370027e-003  1.1156860e-002 
 1.0000000e+000  4.2500010e-001  0.0000000e+000  0.0000000e+000  0.0000000e+000  8.0997609e-003  8.0997609e-003  8.0997609e-003 
 0.0000000e+000  4.7500011e-001  0.0000000e+000  0.0000000e+000  0.0000000e+000  1.6835231e-002  1.6835231e-002  1.6835231e-002 
 2.5000004e-002  4.7500011e-001  4.8081428e-003  1.2910715e-001  1.2919664e-001  1.5954696e-002  1.5954696e-002  2.4300583e-002 
 7.5000003e-002  4.7500011e-001 -1.4826848e-002  2.3001771e-001  2.3049508e-001  1.4193623e-002  1.4193623e-002  4.0757615e-002 
 1.2500000e-001  4.7500011e-001 -3.5118017e-002  2.8297150e-001  2.8514233e-001  8.0552706e-003  8.0552706e-003  4.8708342e-002 
 1.7500001e-001  4.7500011e-001 -5.2723948e-002  3.0719170e-001  3.1168342e-001 -2.2490870e-003 -2.2490870e-003  4.6324190e-002 
 2.2500005e-001  4.7500011e-001 -6.4770438e-002  2.9698434e-001  3.0396530e-001 -1.5390169e-002 -1.5390169e-002  3.0807287e-002 
 2.7500010e-001  4.7500011e-001 -7.0932232e-002  2.5778648e-001  2.6736727e-001 -2.8702339e-002 -2.8702339e-002  7.0402869e-003 
 3.2500011e-001  4.7500011e-001 -7.3492520e-002  2.0420709e-001  2.1702923e-001 -3.9987937e-002 -3.9987937e-002 -1.6437093e-002 
 3.7500012e-001  4.7500011e-001 -7.5512044e-002  1.4953287e-001  1.6751760e-001 -4.8518881e-002 -4.8518881e-002 -3.4487806e-002 
 4.2500010e-001  4.7500011e-001 -7.8749314e-002  9.8823495e-002  1.2636273e-001 -5.4507755e-002 -5.4507755e-002 -4.6523985e-002 
 4.7500011e-001  4.7500011e-001 -8.3090670e-002  5.0569057e-002  9.7269155e-002 -5.8263436e-002 -5.8263436e-002 -5.3532790e-002 