Variables = "x","y", "Velocity_x", "Velocity_y", "Velocity_whole value", "Pressure", "Absolute pressure", "Total pressure"
Zone i=22, j=22
 0.0000000e+000  0.0000000e+000  0.0000000e+000  0.0000000e+000  0.0000000e+000  2.7168592e-002  2.7168592e-002  2.7168592e-002 
 1.8094361e-002  0.0000000e+000  0.0000000e+000  0.0000000e+000  0.0000000e+000  2.7158875e-002  2.7158875e-002  2.7158875e-002 
 5.5549711e-002  0.0000000e+000  0.0000000e+000  0.0000000e+000  0.0000000e+000  2.7138758e-002  2.7138758e-002  2.7138758e-002 
 9.5626950e-002  0.0000000e+000  0.0000000e+000  0.0000000e+000  0.0000000e+000  2.6911480e-002  2.6911480e-002  2.6911480e-002 
 1.3850954e-001  0.0000000e+000  0.0000000e+000  0.0000000e+000  0.0000000e+000  2.6498603e-002  2.6498603e-002  2.6498603e-002 
 1.8439394e-001  0.0000000e+000  0.0000000e+000  0.0000000e+000  0.0000000e+000  2.5922330e-002  2.5922330e-002  2.5922330e-002 
 2.3349030e-001  0.0000000e+000  0.0000000e+000  0.0000000e+000  0.0000000e+000  2.5138456e-002  2.5138456e-002  2.5138456e-002 
 2.8602335e-001  0.0000000e+000  0.0000000e+000  0.0000000e+000  0.0000000e+000  2.4121074e-002  2.4121074e-002  2.4121074e-002 
 3.4223375e-001  0.0000000e+000  0.0000000e+000  0.0000000e+000  0.0000000e+000  2.3058290e-002  2.3058290e-002  2.3058290e-002 
 4.0237886e-001  0.0000000e+000  0.0000000e+000  0.0000000e+000  0.0000000e+000  2.2515705e-002  2.2515705e-002  2.2515705e-002 
 4.6673417e-001  0.0000000e+000  0.0000000e+000  0.0000000e+000  0.0000000e+000  2.3256632e-002  2.3256632e-002  2.3256632e-002 
 5.3326583e-001  0.0000000e+000  0.0000000e+000  0.0000000e+000  0.0000000e+000  2.5386333e-002  2.5386333e-002  2.5386333e-002 
 5.9762120e-001  0.0000000e+000  0.0000000e+000  0.0000000e+000  0.0000000e+000  2.7834132e-002  2.7834132e-002  2.7834132e-002 
 6.5776622e-001  0.0000000e+000  0.0000000e+000  0.0000000e+000  0.0000000e+000  2.8222499e-002  2.8222499e-002  2.8222499e-002 
 7.1397662e-001  0.0000000e+000  0.0000000e+000  0.0000000e+000  0.0000000e+000  2.6310474e-002  2.6310474e-002  2.6310474e-002 
 7.6650971e-001  0.0000000e+000  0.0000000e+000  0.0000000e+000  0.0000000e+000  2.3268720e-002  2.3268720e-002  2.3268720e-002 
 8.1560606e-001  0.0000000e+000  0.0000000e+000  0.0000000e+000  0.0000000e+000  2.0629717e-002  2.0629717e-002  2.0629717e-002 
 8.6149049e-001  0.0000000e+000  0.0000000e+000  0.0000000e+000  0.0000000e+000  1.9076539e-002  1.9076539e-002  1.9076539e-002 
 9.0437305e-001  0.0000000e+000  0.0000000e+000  0.0000000e+000  0.0000000e+000  1.8404935e-002  1.8404935e-002  1.8404935e-002 
 9.4445026e-001  0.0000000e+000  0.0000000e+000  0.0000000e+000  0.0000000e+000  1.8245693e-002  1.8245693e-002  1.8245693e-002 
 9.8190564e-001  0.0000000e+000  0.0000000e+000  0.0000000e+000  0.0000000e+000  1.8358897e-002  1.8358897e-002  1.8358897e-002 
 1.0000000e+000  0.0000000e+000  0.0000000e+000  0.0000000e+000  0.0000000e+000  1.8413585e-002  1.8413585e-002  1.8413585e-002 
 0.0000000e+000  1.8094361e-002  0.0000000e+000  0.0000000e+000  0.0000000e+000  2.7180035e-002  2.7180035e-002  2.7180035e-002 
 1.8094361e-002  1.8094361e-002  5.6316413e-004 -5.2406162e-004  7.6928176e-004  2.7166838e-002  2.7166838e-002  2.7167134e-002 
 5.5549711e-002  1.8094361e-002  2.3365952e-003 -8.7458990e-004  2.4949117e-003  2.7139520e-002  2.7139520e-002  2.7142633e-002 
 9.5626950e-002  1.8094361e-002  4.0700729e-003 -6.2931899e-004  4.1184383e-003  2.6922189e-002  2.6922189e-002  2.6930669e-002 
 1.3850954e-001  1.8094361e-002  4.3826364e-003 -3.7452701e-004  4.3986104e-003  2.6541604e-002  2.6541604e-002  2.6551278e-002 
 1.8439394e-001  1.8094361e-002  2.7800433e-003 -2.9930309e-004  2.7961086e-003  2.6019635e-002  2.6019635e-002  2.6023544e-002 
 2.3349030e-001  1.8094361e-002 -1.2603700e-003 -1.2071773e-004  1.2661379e-003  2.5301306e-002  2.5301306e-002  2.5302107e-002 
 2.8602335e-001  1.8094361e-002 -9.0149296e-003  5.6950777e-004  9.0329004e-003  2.4334243e-002  2.4334243e-002  2.4375040e-002 
 3.4223375e-001  1.8094361e-002 -2.1796936e-002  2.0692756e-003  2.1894939e-002  2.3245122e-002  2.3245122e-002  2.3484817e-002 
 4.0237886e-001  1.8094361e-002 -3.8693428e-002  3.8938278e-003  3.8888857e-002  2.2547899e-002  2.2547899e-002  2.3304071e-002 
 4.6673417e-001  1.8094361e-002 -5.3637974e-002  3.9566937e-003  5.3783711e-002  2.3094779e-002  2.3094779e-002  2.4541123e-002 
 5.3326583e-001  1.8094361e-002 -5.6595389e-002  9.9591399e-004  5.6604151e-002  2.5155216e-002  2.5155216e-002  2.6757231e-002 
 5.9762120e-001  1.8094361e-002 -4.2745240e-002 -1.4865312e-003  4.2771079e-002  2.7463866e-002  2.7463866e-002  2.8378550e-002 
 6.5776622e-001  1.8094361e-002 -1.7726030e-002 -3.3859487e-003  1.8046517e-002  2.7843524e-002  2.7843524e-002  2.8006362e-002 
 7.1397662e-001  1.8094361e-002  7.8065852e-003 -2.5111909e-003  8.2005393e-003  2.5961868e-002  2.5961868e-002  2.5995493e-002 
 7.6650971e-001  1.8094361e-002  2.3893785e-002  9.0187998e-004  2.3910800e-002  2.2922128e-002  2.2922128e-002  2.3207992e-002 
 8.1560606e-001  1.8094361e-002  2.6653875e-002  3.1893672e-003  2.6844013e-002  2.0397054e-002  2.0397054e-002  2.0757355e-002 
 8.6149049e-001  1.8094361e-002  2.0382969e-002  3.5610721e-003  2.0691704e-002  1.8984126e-002  1.8984126e-002  1.9198200e-002 
 9.0437305e-001  1.8094361e-002  1.1607050e-002  2.6436022e-003  1.1904296e-002  1.8428469e-002  1.8428469e-002  1.8499326e-002 
 9.4445026e-001  1.8094361e-002  4.2428300e-003  1.6087942e-003  4.5376010e-003  1.8310798e-002  1.8310798e-002  1.8321093e-002 
 9.8190564e-001  1.8094361e-002  3.0452310e-004  2.6237758e-004  4.0196558e-004  1.8434811e-002  1.8434811e-002  1.8434891e-002 
 1.0000000e+000  1.8094361e-002  0.0000000e+000  0.0000000e+000  0.0000000e+000  1.8494723e-002  1.8494723e-002  1.8494723e-002 
 0.0000000e+000  5.5549711e-002  0.0000000e+000  0.0000000e+000  0.0000000e+000  2.7203720e-002  2.7203720e-002  2.7203720e-002 
 1.8094361e-002  5.5549711e-002  1.0598499e-003 -2.4243328e-003  2.6458781e-003  2.7183322e-002  2.7183322e-002  2.7186822e-002 
 5.5549711e-002  5.5549711e-002  3.5368418e-003 -3.4657198e-003  4.9518142e-003  2.7141098e-002  2.7141098e-002  2.7153358e-002 
 9.5626950e-002  5.5549711e-002  4.6731378e-003 -1.5672116e-003  4.9289321e-003  2.6944356e-002  2.6944356e-002  2.6956502e-002 
 1.3850954e-001  5.5549711e-002  1.8662348e-003  1.3987258e-003  2.3322233e-003  2.6630616e-002  2.6630616e-002  2.6633335e-002 
 1.8439394e-001  5.5549711e-002 -6.9033136e-003  4.7566937e-003  8.3834287e-003  2.6221054e-002  2.6221054e-002  2.6256194e-002 
 2.3349030e-001  5.5549711e-002 -2.3838289e-002  9.1520036e-003  2.5534745e-002  2.5638405e-002  2.5638405e-002  2.5964417e-002 
 2.8602335e-001  5.5549711e-002 -5.0924804e-002  1.4697180e-002  5.3003233e-002  2.4775501e-002  2.4775501e-002  2.6180172e-002 
 3.4223375e-001  5.5549711e-002 -8.6402930e-002  1.9331014e-002  8.8538997e-002  2.3631863e-002  2.3631863e-002  2.7551441e-002 
 4.0237886e-001  5.5549711e-002 -1.2160543e-001  1.8962754e-002  1.2307505e-001  2.2614541e-002  2.2614541e-002  3.0188274e-002 
 4.6673417e-001  5.5549711e-002 -1.4296860e-001  1.0132402e-002  1.4332719e-001  2.2759743e-002  2.2759743e-002  3.3031084e-002 
 5.3326583e-001  5.5549711e-002 -1.3919058e-001 -5.5912076e-003  1.3930283e-001  2.4676805e-002  2.4676805e-002  3.4379445e-002 
 5.9762120e-001  5.5549711e-002 -1.1131194e-001 -2.0663032e-002  1.1321355e-001  2.6697414e-002  2.6697414e-002  3.3106070e-002 
 6.5776622e-001  5.5549711e-002 -6.8361394e-002 -2.8825041e-002  7.4190050e-002  2.7059043e-002  2.7059043e-002  2.9811125e-002 
 7.1397662e-001  5.5549711e-002 -2.1530965e-002 -2.5606722e-002  3.3455741e-002  2.5240256e-002  2.5240256e-002  2.5799898e-002 
 7.6650971e-001  5.5549711e-002  1.6304033e-002 -1.2736132e-002  2.0688899e-002  2.2204679e-002  2.2204679e-002  2.2418695e-002 
 8.1560606e-001  5.5549711e-002  3.5103455e-002  1.6580317e-003  3.5142589e-002  1.9915437e-002  1.9915437e-002  2.0532938e-002 
 8.6149049e-001  5.5549711e-002  3.4967318e-002  1.0517843e-002  3.6514904e-002  1.8792830e-002  1.8792830e-002  1.9459499e-002 
 9.0437305e-001  5.5549711e-002  2.3884341e-002  1.2722226e-002  2.7061353e-002  1.8477185e-002  1.8477185e-002  1.8843343e-002 
 9.4445026e-001  5.5549711e-002  1.0643823e-002  1.0586013e-002  1.5011817e-002  1.8445566e-002  1.8445566e-002  1.8558243e-002 
 9.8190564e-001  5.5549711e-002  1.6589750e-003  4.6529500e-003  4.9398523e-003  1.8591961e-002  1.8591961e-002  1.8604161e-002 
 1.0000000e+000  5.5549711e-002  0.0000000e+000  0.0000000e+000  0.0000000e+000  1.8662684e-002  1.8662684e-002  1.8662684e-002 
 0.0000000e+000  9.5626950e-002  0.0000000e+000  0.0000000e+000  0.0000000e+000  2.7456181e-002  2.7456181e-002  2.7456181e-002 
 1.8094361e-002  9.5626950e-002  8.9219067e-004 -4.4666636e-003  4.5548971e-003  2.7407201e-002  2.7407201e-002  2.7417574e-002 
 5.5549711e-002  9.5626950e-002  1.1225173e-003 -4.6787076e-003  4.8114811e-003  2.7305814e-002  2.7305814e-002  2.7317388e-002 
 9.5626950e-002  9.5626950e-002 -2.5509067e-003  1.2795618e-003  2.8538401e-003  2.7097782e-002  2.7097782e-002  2.7101854e-002 
 1.3850954e-001  9.5626950e-002 -1.3171867e-002  1.0317814e-002  1.6731866e-002  2.6806504e-002  2.6806504e-002  2.6946481e-002 
 1.8439394e-001  9.5626950e-002 -3.4079909e-002  2.1268841e-002  4.0172178e-002  2.6414849e-002  2.6414849e-002  2.7221750e-002 
 2.3349030e-001  9.5626950e-002 -6.7514263e-002  3.3774234e-002  7.5490892e-002  2.5745330e-002  2.5745330e-002  2.8594768e-002 
 2.8602335e-001  9.5626950e-002 -1.1181463e-001  4.4697776e-002  1.2041762e-001  2.4554247e-002  2.4554247e-002  3.1804446e-002 
 3.4223375e-001  9.5626950e-002 -1.5929851e-001  4.7958195e-002  1.6636106e-001  2.2804510e-002  2.2804510e-002  3.6642510e-002 
 4.0237886e-001  9.5626950e-002 -1.9862378e-001  3.8381647e-002  2.0229818e-001  2.1061134e-002  2.1061134e-002  4.1523412e-002 
 4.6673417e-001  9.5626950e-002 -2.1954942e-001  1.5209514e-002  2.2007561e-001  2.0591669e-002  2.0591669e-002  4.4808306e-002 
 5.3326583e-001  9.5626950e-002 -2.1603408e-001 -1.6487235e-002  2.1666230e-001  2.2193955e-002  2.2193955e-002  4.5665234e-002 
 5.9762120e-001  9.5626950e-002 -1.8870364e-001 -4.6678152e-002  1.9439113e-001  2.4489459e-002  2.4489459e-002  4.3383416e-002 
 6.5776622e-001  9.5626950e-002 -1.4332363e-001 -6.4263567e-002  1.5707155e-001  2.5343772e-002  2.5343772e-002  3.7679508e-002 
 7.1397662e-001  9.5626950e-002 -8.8196591e-002 -6.2684566e-002  1.0820348e-001  2.3956299e-002  2.3956299e-002  2.9810296e-002 
 7.6650971e-001  9.5626950e-002 -3.4387928e-002 -4.2241517e-002  5.4469030e-002  2.1287151e-002  2.1287151e-002  2.2770589e-002 
 8.1560606e-001  9.5626950e-002  5.3050150e-003 -1.2206096e-002  1.3309093e-002  1.9115113e-002  1.9115113e-002  1.9203680e-002 
 8.6149049e-001  9.5626950e-002  2.1906359e-002  1.1354166e-002  2.4673987e-002  1.8093744e-002  1.8093744e-002  1.8398147e-002 
 9.0437305e-001  9.5626950e-002  1.9690786e-002  2.2455711e-002  2.9866135e-002  1.7947219e-002  1.7947219e-002  1.8393213e-002 
 9.4445026e-001  9.5626950e-002  9.5703239e-003  2.2307400e-002  2.4273673e-002  1.8065300e-002  1.8065300e-002  1.8359905e-002 
 9.8190564e-001  9.5626950e-002  1.2861048e-003  1.1431875e-002  1.1503992e-002  1.8267917e-002  1.8267917e-002  1.8334087e-002 
 1.0000000e+000  9.5626950e-002  0.0000000e+000  0.0000000e+000  0.0000000e+000  1.8365799e-002  1.8365799e-002  1.8365799e-002 
 0.0000000e+000  1.3850954e-001  0.0000000e+000  0.0000000e+000  0.0000000e+000  2.7976830e-002  2.7976830e-002  2.7976830e-002 
 1.8094361e-002  1.3850954e-001  1.1386914e-004 -4.1560414e-003  4.1576009e-003  2.7881609e-002  2.7881609e-002  2.7890252e-002 
 5.5549711e-002  1.3850954e-001 -4.8058406e-003  1.6351091e-004  4.8086215e-003  2.7684502e-002  2.7684502e-002  2.7696064e-002 
 9.5626950e-002  1.3850954e-001 -1.7085500e-002  1.3290071e-002  2.1645792e-002  2.7425392e-002  2.7425392e-002  2.7659662e-002 
 1.3850954e-001  1.3850954e-001 -3.9234333e-002  3.1676460e-002  5.0425500e-002  2.7038934e-002  2.7038934e-002  2.8310299e-002 
 1.8439394e-001  1.3850954e-001 -7.4258268e-002  5.2730475e-002  9.1075756e-002  2.6382858e-002  2.6382858e-002  3.0530255e-002 
 2.3349030e-001  1.3850954e-001 -1.2154438e-001  7.2700061e-002  1.4162746e-001  2.5084309e-002  2.5084309e-002  3.5113476e-002 
 2.8602335e-001  1.3850954e-001 -1.7514090e-001  8.4538639e-002  1.9447652e-001  2.2779061e-002  2.2779061e-002  4.1689619e-002 
 3.4223375e-001  1.3850954e-001 -2.2566794e-001  8.1064306e-002  2.3978624e-001  1.9561829e-002  1.9561829e-002  4.8310548e-002 
 4.0237886e-001  1.3850954e-001 -2.6457861e-001  5.9334781e-002  2.7115026e-001  1.6343227e-002  1.6343227e-002  5.3104457e-002 
 4.6673417e-001  1.3850954e-001 -2.8623319e-001  2.1387789e-002  2.8703114e-001  1.4696037e-002  1.4696037e-002  5.5889476e-002 
 5.3326583e-001  1.3850954e-001 -2.8692284e-001 -2.6109977e-002  2.8810841e-001  1.5702475e-002  1.5702475e-002  5.7205699e-002 
 5.9762120e-001  1.3850954e-001 -2.6609200e-001 -7.1736120e-002  2.7559215e-001  1.8392472e-002  1.8392472e-002  5.6367982e-002 
 6.5776622e-001  1.3850954e-001 -2.2589943e-001 -1.0302463e-001  2.4828336e-001  2.0638084e-002  2.0638084e-002  5.1460396e-002 
 7.1397662e-001  1.3850954e-001 -1.6964450e-001 -1.1011202e-001  2.0224716e-001  2.1031488e-002  2.1031488e-002  4.1483443e-002 
 7.6650971e-001  1.3850954e-001 -1.0459635e-001 -8.8237643e-002  1.3684399e-001  1.9778930e-002  1.9778930e-002  2.9142069e-002 
 8.1560606e-001  1.3850954e-001 -4.4122253e-002 -4.4740885e-002  6.2837251e-002  1.8313833e-002  1.8313833e-002  2.0288093e-002 
 8.6149049e-001  1.3850954e-001 -5.0885207e-003 -1.1912325e-003  5.2260957e-003  1.7453296e-002  1.7453296e-002  1.7466953e-002 
 9.0437305e-001  1.3850954e-001  7.2318101e-003  2.4363469e-002  2.5414124e-002  1.7251583e-002  1.7251583e-002  1.7574521e-002 
 9.4445026e-001  1.3850954e-001  4.7490522e-003  2.9815663e-002  3.0191509e-002  1.7356513e-002  1.7356513e-002  1.7812276e-002 
 9.8190564e-001  1.3850954e-001  3.3552296e-004  1.6083959e-002  1.6087459e-002  1.7541615e-002  1.7541615e-002  1.7671019e-002 
 1.0000000e+000  1.3850954e-001  0.0000000e+000  0.0000000e+000  0.0000000e+000  1.7631037e-002  1.7631037e-002  1.7631037e-002 
 0.0000000e+000  1.8439394e-001  0.0000000e+000  0.0000000e+000  0.0000000e+000  2.8758045e-002  2.8758045e-002  2.8758045e-002 
 1.8094361e-002  1.8439394e-001 -1.1509489e-003  1.8063006e-003  2.1418228e-003  2.8582754e-002  2.8582754e-002  2.8585047e-002 
 5.5549711e-002  1.8439394e-001 -1.3705529e-002  1.5853437e-002  2.0956455e-002  2.8219901e-002  2.8219901e-002  2.8439488e-002 
 9.5626950e-002  1.8439394e-001 -3.6910672e-002  3.8918544e-002  5.3638145e-002  2.7817726e-002  2.7817726e-002  2.9256251e-002 
 1.3850954e-001  1.8439394e-001 -7.1027435e-002  6.8138957e-002  9.8426692e-002  2.7033979e-002  2.7033979e-002  3.1877887e-002 
 1.8439394e-001  1.8439394e-001 -1.1705992e-001  9.8144650e-002  1.5275928e-001  2.5494756e-002  2.5494756e-002  3.7162457e-002 
 2.3349030e-001  1.8439394e-001 -1.7113037e-001  1.2133155e-001  2.0977834e-001  2.2613801e-002  2.2613801e-002  4.4617277e-002 
 2.8602335e-001  1.8439394e-001 -2.2552891e-001  1.2890179e-001  2.5976714e-001  1.8066103e-002  1.8066103e-002  5.1805582e-002 
 3.4223375e-001  1.8439394e-001 -2.7234137e-001  1.1533372e-001  2.9575613e-001  1.2325962e-002  1.2325962e-002  5.6061808e-002 
 4.0237886e-001  1.8439394e-001 -3.0652627e-001  8.0752172e-002  3.1698465e-001  6.7895148e-003  6.7895148e-003  5.7029150e-002 
 4.6673417e-001  1.8439394e-001 -3.2598352e-001  2.9109098e-002  3.2728061e-001  3.3557536e-003  3.3557536e-003  5.6912053e-002 
 5.3326583e-001  1.8439394e-001 -3.2998052e-001 -3.2340795e-002  3.3156157e-001  3.4391624e-003  3.4391624e-003  5.8405697e-002 
 5.9762120e-001  1.8439394e-001 -3.1897566e-001 -9.2588991e-002  3.3214182e-001  6.6012717e-003  6.6012717e-003  6.1760366e-002 
 6.5776622e-001  1.8439394e-001 -2.9189846e-001 -1.4018171e-001  3.2381418e-001  1.0948283e-002  1.0948283e-002  6.3376091e-002 
 7.1397662e-001  1.8439394e-001 -2.4588159e-001 -1.6355886e-001  2.9531214e-001  1.4616386e-002  1.4616386e-002  5.8221012e-002 
 7.6650971e-001  1.8439394e-001 -1.8103690e-001 -1.5179889e-001  2.3625678e-001  1.6641982e-002  1.6641982e-002  4.4550613e-002 
 8.1560606e-001  1.8439394e-001 -1.0589097e-001 -1.0344557e-001  1.4803340e-001  1.7265856e-002  1.7265856e-002  2.8222799e-002 
 8.6149049e-001  1.8439394e-001 -4.0399630e-002 -3.7066679e-002  5.4827627e-002  1.7142031e-002  1.7142031e-002  1.8645065e-002 
 9.0437305e-001  1.8439394e-001 -6.0169855e-003  1.3163921e-002  1.4473871e-002  1.6775299e-002  1.6775299e-002  1.6880045e-002 
 9.4445026e-001  1.8439394e-001  1.3268976e-003  3.0517602e-002  3.0546436e-002  1.6614195e-002  1.6614195e-002  1.7080737e-002 
 9.8190564e-001  1.8439394e-001  2.6362503e-004  1.7832097e-002  1.7834045e-002  1.6673474e-002  1.6673474e-002  1.6832501e-002 
 1.0000000e+000  1.8439394e-001  0.0000000e+000  0.0000000e+000  0.0000000e+000  1.6702110e-002  1.6702110e-002  1.6702110e-002 
 0.0000000e+000  2.3349030e-001  0.0000000e+000  0.0000000e+000  0.0000000e+000  2.9240694e-002  2.9240694e-002  2.9240694e-002 
 1.8094361e-002  2.3349030e-001 -3.0252461e-003  1.6258840e-002  1.6537895e-002  2.8988255e-002  2.8988255e-002  2.9125007e-002 
 5.5549711e-002  2.3349030e-001 -2.3876199e-002  4.5163803e-002  5.1086612e-002  2.8465705e-002  2.8465705e-002  2.9770626e-002 
 9.5626950e-002  2.3349030e-001 -5.6640040e-002  7.8967340e-002  9.7179912e-002  2.7731463e-002  2.7731463e-002  3.2453429e-002 
 1.3850954e-001  2.3349030e-001 -9.8710291e-002  1.1738725e-001  1.5337369e-001  2.6022511e-002  2.6022511e-002  3.7784256e-002 
 1.8439394e-001  2.3349030e-001 -1.4888033e-001  1.5206836e-001  2.1281481e-001  2.2709468e-002  2.2709468e-002  4.5354538e-002 
 2.3349030e-001  2.3349030e-001 -2.0129932e-001  1.7292212e-001  2.6537421e-001  1.7130226e-002  1.7130226e-002  5.2341964e-002 
 2.8602335e-001  2.3349030e-001 -2.4851876e-001  1.7168491e-001  3.0205509e-001  9.3212314e-003  9.3212314e-003  5.4939874e-002 
 3.4223375e-001  2.3349030e-001 -2.8488603e-001  1.4590429e-001  3.2007515e-001  4.1171460e-004  4.1171460e-004  5.1635772e-002 
 4.0237886e-001  2.3349030e-001 -3.0856147e-001  9.9060595e-002  3.2407281e-001 -7.6722400e-003 -7.6722400e-003  4.4839352e-002 
 4.6673417e-001  2.3349030e-001 -3.2124647e-001  3.7048176e-002  3.2337573e-001 -1.2881030e-002 -1.2881030e-002  3.9404903e-002 
 5.3326583e-001  2.3349030e-001 -3.2629719e-001 -3.2984629e-002  3.2796013e-001 -1.3796302e-002 -1.3796302e-002  3.9982621e-002 
 5.9762120e-001  2.3349030e-001 -3.2581791e-001 -1.0282066e-001  3.4165683e-001 -1.0524685e-002 -1.0524685e-002  4.7840014e-002 
 6.5776622e-001  2.3349030e-001 -3.1706586e-001 -1.6502900e-001  3.5744277e-001 -4.4501028e-003 -4.4501028e-003  5.9432566e-002 
 7.1397662e-001  2.3349030e-001 -2.9284623e-001 -2.0949987e-001  3.6006820e-001  2.7691526e-003  2.7691526e-003  6.7593709e-002 
 7.6650971e-001  2.3349030e-001 -2.4541739e-001 -2.2110353e-001  3.3032781e-001  9.4697494e-003  9.4697494e-003  6.4027980e-002 
 8.1560606e-001  2.3349030e-001 -1.7329001e-001 -1.8631712e-001  2.5444743e-001  1.4227286e-002  1.4227286e-002  4.6599034e-002 
 8.6149049e-001  2.3349030e-001 -8.9781061e-002 -1.0810121e-001  1.4052227e-001  1.6375193e-002  1.6375193e-002  2.6248449e-002 
 9.0437305e-001  2.3349030e-001 -2.4551574e-002 -2.1202080e-002  3.2439295e-002  1.6407477e-002  1.6407477e-002  1.6933631e-002 
 9.4445026e-001  2.3349030e-001 -3.6595494e-004  2.3226906e-002  2.3229789e-002  1.5780851e-002  1.5780851e-002  1.6050663e-002 
 9.8190564e-001  2.3349030e-001  1.3042421e-003  1.8739566e-002  1.8784897e-002  1.5623506e-002  1.5623506e-002  1.5799941e-002 
 1.0000000e+000  2.3349030e-001  0.0000000e+000  0.0000000e+000  0.0000000e+000  1.5547494e-002  1.5547494e-002  1.5547494e-002 
 0.0000000e+000  2.8602335e-001  0.0000000e+000  0.0000000e+000  0.0000000e+000  2.8591705e-002  2.8591705e-002  2.8591705e-002 
 1.8094361e-002  2.8602335e-001 -4.0736222e-003  3.9298318e-002  3.9508887e-002  2.8231775e-002  2.8231775e-002  2.9012252e-002 
 5.5549711e-002  2.8602335e-001 -3.0696103e-002  8.6612076e-002  9.1890708e-002  2.7486721e-002  2.7486721e-002  3.1708673e-002 
 9.5626950e-002  2.8602335e-001 -6.8367489e-002  1.2941720e-001  1.4636572e-001  2.6127603e-002  2.6127603e-002  3.6839064e-002 
 1.3850954e-001  2.8602335e-001 -1.1184017e-001  1.7284290e-001  2.0587106e-001  2.2918509e-002  2.2918509e-002  4.4109955e-002 
 1.8439394e-001  2.8602335e-001 -1.5861109e-001  2.0654370e-001  2.6041847e-001  1.7102944e-002  1.7102944e-002  5.1011831e-002 
 2.3349030e-001  2.8602335e-001 -2.0230752e-001  2.1966252e-001  2.9863012e-001  8.2480898e-003  8.2480898e-003  5.2838068e-002 
 2.8602335e-001  2.8602335e-001 -2.3677449e-001  2.0608857e-001  3.1390232e-001 -2.8997259e-003 -2.8997259e-003  4.6367604e-002 
 3.4223375e-001  2.8602335e-001 -2.5878000e-001  1.6730718e-001  3.0815384e-001 -1.4448618e-002 -1.4448618e-002  3.3030774e-002 
 4.0237886e-001  2.8602335e-001 -2.6956156e-001  1.1056543e-001  2.9135570e-001 -2.4174109e-002 -2.4174109e-002  1.8269965e-002 
 4.6673417e-001  2.8602335e-001 -2.7397662e-001  4.3548346e-002  2.7741602e-001 -3.0292820e-002 -3.0292820e-002  8.1870044e-003 
 5.3326583e-001  2.8602335e-001 -2.7778718e-001 -2.7923103e-002  2.7918705e-001 -3.1814195e-002 -3.1814195e-002  7.1585132e-003 
 5.9762120e-001  2.8602335e-001 -2.8383976e-001 -9.9617958e-002  3.0081347e-001 -2.8925238e-002 -2.8925238e-002  1.6319135e-002 
 6.5776622e-001  2.8602335e-001 -2.9005262e-001 -1.6920301e-001  3.3579782e-001 -2.2527222e-002 -2.2527222e-002  3.3852872e-002 
 7.1397662e-001  2.8602335e-001 -2.8995422e-001 -2.3173170e-001  3.7117788e-001 -1.3531507e-002 -1.3531507e-002  5.5355005e-002 
 7.6650971e-001  2.8602335e-001 -2.7212763e-001 -2.7355641e-001  3.8585821e-001 -3.1236222e-003 -3.1236222e-003  7.1319655e-002 
 8.1560606e-001  2.8602335e-001 -2.2473851e-001 -2.7264893e-001  3.5333389e-001  6.6747554e-003  6.6747554e-003  6.9097176e-002 
 8.6149049e-001  2.8602335e-001 -1.4676383e-001 -2.1004532e-001  2.5623944e-001  1.3215189e-002  1.3215189e-002  4.6044517e-002 
 9.0437305e-001  2.8602335e-001 -5.9693065e-002 -9.6556686e-002  1.1351853e-001  1.5269035e-002  1.5269035e-002  2.1712264e-002 
 9.4445026e-001  2.8602335e-001 -5.2490877e-003  1.2930111e-003  5.4059965e-003  1.4535569e-002  1.4535569e-002  1.4550181e-002 
 9.8190564e-001  2.8602335e-001  3.6974598e-003  1.9747680e-002  2.0090846e-002  1.3827449e-002  1.3827449e-002  1.4029270e-002 
 1.0000000e+000  2.8602335e-001  0.0000000e+000  0.0000000e+000  0.0000000e+000  1.3485362e-002  1.3485362e-002  1.3485362e-002 
 0.0000000e+000  3.4223375e-001  0.0000000e+000  0.0000000e+000  0.0000000e+000  2.5683086e-002  2.5683086e-002  2.5683086e-002 
 1.8094361e-002  3.4223375e-001 -3.1459338e-003  6.7159742e-002  6.7233384e-002  2.5197530e-002  2.5197530e-002  2.7457694e-002 
 5.5549711e-002  3.4223375e-001 -3.0330783e-002  1.3435784e-001  1.3773882e-001  2.4192430e-002  2.4192430e-002  3.3678424e-002 
 9.5626950e-002  3.4223375e-001 -6.6728190e-002  1.8295538e-001  1.9474426e-001  2.2008149e-002  2.2008149e-002  4.0970810e-002 
 1.3850954e-001  3.4223375e-001 -1.0533468e-001  2.2648288e-001  2.4977969e-001  1.7091490e-002  1.7091490e-002  4.8286434e-002 
 1.8439394e-001  3.4223375e-001 -1.4338069e-001  2.5416130e-001  2.9181498e-001  8.7766666e-003  8.7766666e-003  5.1354662e-002 
 2.3349030e-001  3.4223375e-001 -1.7513321e-001  2.5577179e-001  3.0998525e-001 -2.8515637e-003 -2.8515637e-003  4.5193862e-002 
 2.8602335e-001  3.4223375e-001 -1.9629630e-001  2.2832803e-001  3.0110782e-001 -1.6222464e-002 -1.6222464e-002  2.9110501e-002 
 3.4223375e-001  3.4223375e-001 -2.0607702e-001  1.7761914e-001  2.7205938e-001 -2.8899143e-002 -2.8899143e-002  8.1090080e-003 
 4.0237886e-001  3.4223375e-001 -2.0812312e-001  1.1431611e-001  2.3745190e-001 -3.8812265e-002 -3.8812265e-002 -1.0620562e-002 
 4.6673417e-001  3.4223375e-001 -2.0827095e-001  4.6694450e-002  2.1344124e-001 -4.4833995e-002 -4.4833995e-002 -2.2055415e-002 
 5.3326583e-001  3.4223375e-001 -2.1102576e-001 -2.1717178e-002  2.1214031e-001 -4.6498008e-002 -4.6498008e-002 -2.3996254e-002 
 5.9762120e-001  3.4223375e-001 -2.1777946e-001 -8.9510165e-002  2.3545693e-001 -4.4130366e-002 -4.4130366e-002 -1.6410386e-002 
 6.5776622e-001  3.4223375e-001 -2.2810002e-001 -1.5715593e-001  2.7699748e-001 -3.8428836e-002 -3.8428836e-002 -6.5033433e-005 
 7.1397662e-001  3.4223375e-001 -2.4063249e-001 -2.2596164e-001  3.3009493e-001 -2.9839894e-002 -2.9839894e-002  2.4641436e-002 
 7.6650971e-001  3.4223375e-001 -2.4816562e-001 -2.9078996e-001  3.8228914e-001 -1.8724026e-002 -1.8724026e-002  5.4348461e-002 
 8.1560606e-001  3.4223375e-001 -2.3547484e-001 -3.3200076e-001  4.0702936e-001 -6.0585290e-003 -6.0585290e-003  7.6777928e-002 
 8.6149049e-001  3.4223375e-001 -1.8690453e-001 -3.1479999e-001  3.6610427e-001  5.2486365e-003  5.2486365e-003  7.2264805e-002 
 9.0437305e-001  3.4223375e-001 -1.0399812e-001 -2.1196252e-001  2.3610108e-001  1.1413440e-002  1.1413440e-002  3.9285298e-002 
 9.4445026e-001  3.4223375e-001 -2.0213999e-002 -5.7180196e-002  6.0648005e-002  1.2230072e-002  1.2230072e-002  1.4069162e-002 
 9.8190564e-001  3.4223375e-001  7.6686479e-003  1.6508652e-002  1.8202851e-002  1.0229210e-002  1.0229210e-002  1.0394882e-002 
 1.0000000e+000  3.4223375e-001  0.0000000e+000  0.0000000e+000  0.0000000e+000  9.2626112e-003  9.2626112e-003  9.2626112e-003 
 0.0000000e+000  4.0237886e-001  0.0000000e+000  0.0000000e+000  0.0000000e+000  2.0145085e-002  2.0145085e-002  2.0145085e-002 
 1.8094361e-002  4.0237886e-001 -1.6632919e-004  9.2591807e-002  9.2591956e-002  1.9569688e-002  1.9569688e-002  2.3856323e-002 
 5.5549711e-002  4.0237886e-001 -2.1866200e-002  1.7985983e-001  1.8118413e-001  1.8378614e-002  1.8378614e-002  3.4792457e-002 
 9.5626950e-002  4.0237886e-001 -5.1512238e-002  2.3175409e-001  2.3740992e-001  1.5438368e-002  1.5438368e-002  4.3620102e-002 
 1.3850954e-001  4.0237886e-001 -8.1044339e-002  2.7177274e-001  2.8359938e-001  9.1663534e-003  9.1663534e-003  4.9380656e-002 
 1.8439394e-001  4.0237886e-001 -1.0824481e-001  2.9081911e-001  3.1031063e-001 -8.6634886e-004 -8.6634886e-004  4.7279999e-002 
 2.3349030e-001  4.0237886e-001 -1.2875678e-001  2.8014866e-001  3.0832058e-001 -1.4025987e-002 -1.4025987e-002  3.3504803e-002 
 2.8602335e-001  4.0237886e-001 -1.4029408e-001  2.4023695e-001  2.7820176e-001 -2.8144620e-002 -2.8144620e-002  1.0553490e-002 
 3.4223375e-001  4.0237886e-001 -1.4394851e-001  1.8076260e-001  2.3107637e-001 -4.0650953e-002 -4.0650953e-002 -1.3952807e-002 
 4.0237886e-001  4.0237886e-001 -1.4434150e-001  1.1436334e-001  1.8415602e-001 -4.9940605e-002 -4.9940605e-002 -3.2983884e-002 
 4.6673417e-001  4.0237886e-001 -1.4613833e-001  4.7836792e-002  1.5376855e-001 -5.5532429e-002 -5.5532429e-002 -4.3710046e-002 
 5.3326583e-001  4.0237886e-001 -1.5055962e-001 -1.8067989e-002  1.5163988e-001 -5.7220142e-002 -5.7220142e-002 -4.5722816e-002 
 5.9762120e-001  4.0237886e-001 -1.5648744e-001 -8.2464695e-002  1.7688625e-001 -5.5213321e-002 -5.5213321e-002 -3.9568949e-002 
 6.5776622e-001  4.0237886e-001 -1.6387954e-001 -1.4485885e-001  2.1872492e-001 -5.0178152e-002 -5.0178152e-002 -2.6257856e-002 
 7.1397662e-001  4.0237886e-001 -1.7454167e-001 -2.0826814e-001  2.7173591e-001 -4.2618472e-002 -4.2618472e-002 -5.6982674e-003 
 7.6650971e-001  4.0237886e-001 -1.8949823e-001 -2.7716914e-001  3.3575633e-001 -3.2786511e-002 -3.2786511e-002  2.3579644e-002 
 8.1560606e-001  4.0237886e-001 -2.0141745e-001 -3.4705615e-001  4.0126920e-001 -2.0762084e-002 -2.0762084e-002  5.9746396e-002 
 8.6149049e-001  4.0237886e-001 -1.8994702e-001 -3.8625982e-001  4.3043759e-001 -7.5863106e-003 -7.5863106e-003  8.5051954e-002 
 9.0437305e-001  4.0237886e-001 -1.3552439e-001 -3.3649856e-001  3.6276457e-001  2.9439274e-003  2.9439274e-003  6.8742998e-002 
 9.4445026e-001  4.0237886e-001 -4.8145652e-002 -1.6818684e-001  1.7494233e-001  6.7642704e-003  6.7642704e-003  2.2066679e-002 
 9.8190564e-001  4.0237886e-001  6.7764292e-003 -3.6638093e-004  6.7863264e-003  3.7711249e-003  3.7711249e-003  3.7941521e-003 
 1.0000000e+000  4.0237886e-001  0.0000000e+000  0.0000000e+000  0.0000000e+000  2.3251621e-003  2.3251621e-003  2.3251621e-003 
 0.0000000e+000  4.6673417e-001  0.0000000e+000  0.0000000e+000  0.0000000e+000  1.2948178e-002  1.2948178e-002  1.2948178e-002 
 1.8094361e-002  4.6673417e-001  3.0419435e-003  1.0650520e-001  1.0654863e-001  1.2432209e-002  1.2432209e-002  1.8108515e-002 
 5.5549711e-002  4.6673417e-001 -7.7559669e-003  2.1391913e-001  2.1405970e-001  1.1364154e-002  1.1364154e-002  3.4274928e-002 
 9.5626950e-002  4.6673417e-001 -2.5988024e-002  2.6891389e-001  2.7016672e-001  7.8955777e-003  7.8955777e-003  4.4390608e-002 
 1.3850954e-001  4.6673417e-001 -4.4515312e-002  3.0461407e-001  3.0784956e-001  9.9004223e-004  9.9004223e-004  4.8375715e-002 
 1.8439394e-001  4.6673417e-001 -6.0869657e-002  3.1567410e-001  3.2148913e-001 -9.7027458e-003 -9.7027458e-003  4.1974880e-002 
 2.3349030e-001  4.6673417e-001 -7.2512724e-002  2.9532370e-001  3.0409569e-001 -2.3200564e-002 -2.3200564e-002  2.3036527e-002 
 2.8602335e-001  4.6673417e-001 -7.8619741e-002  2.4697128e-001  2.5918311e-001 -3.7122689e-002 -3.7122689e-002 -3.5347510e-003 
 3.4223375e-001  4.6673417e-001 -8.0880836e-002  1.8303409e-001  2.0010795e-001 -4.9043588e-002 -4.9043588e-002 -2.9021993e-002 
 4.0237886e-001  4.6673417e-001 -8.3096839e-002  1.1653656e-001  1.4312880e-001 -5.7771467e-002 -5.7771467e-002 -4.7528539e-002 
 4.6673417e-001  4.6673417e-001 -8.7825060e-002  5.1722322e-002  1.0192370e-001 -6.3133121e-002 -6.3133121e-002 -5.7938900e-002 