Variables = "x","y", "Velocity_x", "Velocity_y", "Velocity_whole value", "Pressure", "Absolute pressure", "Total pressure"
Zone i=42, j=42
 0.0000000e+000  0.0000000e+000  0.0000000e+000  0.0000000e+000  0.0000000e+000  2.3489108e-002  2.3489108e-002  2.3489108e-002 
 1.2499990e-002  0.0000000e+000  0.0000000e+000  0.0000000e+000  0.0000000e+000  2.3502650e-002  2.3502650e-002  2.3502650e-002 
 3.7499964e-002  0.0000000e+000  0.0000000e+000  0.0000000e+000  0.0000000e+000  2.3529731e-002  2.3529731e-002  2.3529731e-002 
 6.2499940e-002  0.0000000e+000  0.0000000e+000  0.0000000e+000  0.0000000e+000  2.3451937e-002  2.3451937e-002  2.3451937e-002 
 8.7499917e-002  0.0000000e+000  0.0000000e+000  0.0000000e+000  0.0000000e+000  2.3272177e-002  2.3272177e-002  2.3272177e-002 
 1.1249990e-001  0.0000000e+000  0.0000000e+000  0.0000000e+000  0.0000000e+000  2.3019638e-002  2.3019638e-002  2.3019638e-002 
 1.3749990e-001  0.0000000e+000  0.0000000e+000  0.0000000e+000  0.0000000e+000  2.2715239e-002  2.2715239e-002  2.2715239e-002 
 1.6249985e-001  0.0000000e+000  0.0000000e+000  0.0000000e+000  0.0000000e+000  2.2364730e-002  2.2364730e-002  2.2364730e-002 
 1.8749979e-001  0.0000000e+000  0.0000000e+000  0.0000000e+000  0.0000000e+000  2.1961931e-002  2.1961931e-002  2.1961931e-002 
 2.1249980e-001  0.0000000e+000  0.0000000e+000  0.0000000e+000  0.0000000e+000  2.1496167e-002  2.1496167e-002  2.1496167e-002 
 2.3749980e-001  0.0000000e+000  0.0000000e+000  0.0000000e+000  0.0000000e+000  2.0960344e-002  2.0960344e-002  2.0960344e-002 
 2.6249984e-001  0.0000000e+000  0.0000000e+000  0.0000000e+000  0.0000000e+000  2.0356486e-002  2.0356486e-002  2.0356486e-002 
 2.8749990e-001  0.0000000e+000  0.0000000e+000  0.0000000e+000  0.0000000e+000  1.9699676e-002  1.9699676e-002  1.9699676e-002 
 3.1249988e-001  0.0000000e+000  0.0000000e+000  0.0000000e+000  0.0000000e+000  1.9020855e-002  1.9020855e-002  1.9020855e-002 
 3.3749995e-001  0.0000000e+000  0.0000000e+000  0.0000000e+000  0.0000000e+000  1.8368186e-002  1.8368186e-002  1.8368186e-002 
 3.6250001e-001  0.0000000e+000  0.0000000e+000  0.0000000e+000  0.0000000e+000  1.7805373e-002  1.7805373e-002  1.7805373e-002 
 3.8749999e-001  0.0000000e+000  0.0000000e+000  0.0000000e+000  0.0000000e+000  1.7405368e-002  1.7405368e-002  1.7405368e-002 
 4.1250005e-001  0.0000000e+000  0.0000000e+000  0.0000000e+000  0.0000000e+000  1.7239854e-002  1.7239854e-002  1.7239854e-002 
 4.3750012e-001  0.0000000e+000  0.0000000e+000  0.0000000e+000  0.0000000e+000  1.7366759e-002  1.7366759e-002  1.7366759e-002 
 4.6250010e-001  0.0000000e+000  0.0000000e+000  0.0000000e+000  0.0000000e+000  1.7818367e-002  1.7818367e-002  1.7818367e-002 
 4.8750013e-001  0.0000000e+000  0.0000000e+000  0.0000000e+000  0.0000000e+000  1.8575801e-002  1.8575801e-002  1.8575801e-002 
 5.1250017e-001  0.0000000e+000  0.0000000e+000  0.0000000e+000  0.0000000e+000  1.9535592e-002  1.9535592e-002  1.9535592e-002 
 5.3750026e-001  0.0000000e+000  0.0000000e+000  0.0000000e+000  0.0000000e+000  2.0785814e-002  2.0785814e-002  2.0785814e-002 
 5.6250030e-001  0.0000000e+000  0.0000000e+000  0.0000000e+000  0.0000000e+000  2.2013417e-002  2.2013417e-002  2.2013417e-002 
 5.8750033e-001  0.0000000e+000  0.0000000e+000  0.0000000e+000  0.0000000e+000  2.3089308e-002  2.3089308e-002  2.3089308e-002 
 6.1250037e-001  0.0000000e+000  0.0000000e+000  0.0000000e+000  0.0000000e+000  2.3848753e-002  2.3848753e-002  2.3848753e-002 
 6.3750041e-001  0.0000000e+000  0.0000000e+000  0.0000000e+000  0.0000000e+000  2.4147362e-002  2.4147362e-002  2.4147362e-002 
 6.6250038e-001  0.0000000e+000  0.0000000e+000  0.0000000e+000  0.0000000e+000  2.3903124e-002  2.3903124e-002  2.3903124e-002 
 6.8750048e-001  0.0000000e+000  0.0000000e+000  0.0000000e+000  0.0000000e+000  2.3121795e-002  2.3121795e-002  2.3121795e-002 
 7.1250051e-001  0.0000000e+000  0.0000000e+000  0.0000000e+000  0.0000000e+000  2.1898618e-002  2.1898618e-002  2.1898618e-002 
 7.3750049e-001  0.0000000e+000  0.0000000e+000  0.0000000e+000  0.0000000e+000  2.0395860e-002  2.0395860e-002  2.0395860e-002 
 7.6250052e-001  0.0000000e+000  0.0000000e+000  0.0000000e+000  0.0000000e+000  1.8805590e-002  1.8805590e-002  1.8805590e-002 
 7.8750062e-001  0.0000000e+000  0.0000000e+000  0.0000000e+000  0.0000000e+000  1.7299512e-002  1.7299512e-002  1.7299512e-002 
 8.1250060e-001  0.0000000e+000  0.0000000e+000  0.0000000e+000  0.0000000e+000  1.6047550e-002  1.6047550e-002  1.6047550e-002 
 8.3750063e-001  0.0000000e+000  0.0000000e+000  0.0000000e+000  0.0000000e+000  1.5073136e-002  1.5073136e-002  1.5073136e-002 
 8.6250067e-001  0.0000000e+000  0.0000000e+000  0.0000000e+000  0.0000000e+000  1.4390213e-002  1.4390213e-002  1.4390213e-002 
 8.8750076e-001  0.0000000e+000  0.0000000e+000  0.0000000e+000  0.0000000e+000  1.3963981e-002  1.3963981e-002  1.3963981e-002 
 9.1250080e-001  0.0000000e+000  0.0000000e+000  0.0000000e+000  0.0000000e+000  1.3737832e-002  1.3737832e-002  1.3737832e-002 
 9.3750083e-001  0.0000000e+000  0.0000000e+000  0.0000000e+000  0.0000000e+000  1.3658931e-002  1.3658931e-002  1.3658931e-002 
 9.6250087e-001  0.0000000e+000  0.0000000e+000  0.0000000e+000  0.0000000e+000  1.3690244e-002  1.3690244e-002  1.3690244e-002 
 9.8750043e-001  0.0000000e+000  0.0000000e+000  0.0000000e+000  0.0000000e+000  1.3797062e-002  1.3797062e-002  1.3797062e-002 
 1.0000000e+000  0.0000000e+000  0.0000000e+000  0.0000000e+000  0.0000000e+000  1.3850469e-002  1.3850469e-002  1.3850469e-002 
 0.0000000e+000  1.2499990e-002  0.0000000e+000  0.0000000e+000  0.0000000e+000  2.3476223e-002  2.3476223e-002  2.3476223e-002 
 1.2499990e-002  1.2499990e-002  1.3268641e-004 -1.2726452e-004  1.8385304e-004  2.3489306e-002  2.3489306e-002  2.3489323e-002 
 3.7499964e-002  1.2499990e-002  1.0307007e-003 -3.9154163e-004  1.1025647e-003  2.3515470e-002  2.3515470e-002  2.3516078e-002 
 6.2499940e-002  1.2499990e-002  2.3007505e-003 -3.8975000e-004  2.3335291e-003  2.3437487e-002  2.3437487e-002  2.3440210e-002 
 8.7499917e-002  1.2499990e-002  3.2993001e-003 -2.8717105e-004  3.3117742e-003  2.3265282e-002  2.3265282e-002  2.3270765e-002 
 1.1249990e-001  1.2499990e-002  3.7743731e-003 -1.8685739e-004  3.7789957e-003  2.3027690e-002  2.3027690e-002  2.3034830e-002 
 1.3749990e-001  1.2499990e-002  3.7138492e-003 -1.2909286e-004  3.7160921e-003  2.2743074e-002  2.2743074e-002  2.2749979e-002 
 1.6249985e-001  1.2499990e-002  3.1740849e-003 -1.1073214e-004  3.1760158e-003  2.2415455e-002  2.2415455e-002  2.2420499e-002 
 1.8749979e-001  1.2499990e-002  2.1791030e-003 -1.0648827e-004  2.1817035e-003  2.2037992e-002  2.2037992e-002  2.2040373e-002 
 2.1249980e-001  1.2499990e-002  6.8482116e-004 -8.9340087e-005  6.9062412e-004  2.1600027e-002  2.1600027e-002  2.1600265e-002 
 2.3749980e-001  1.2499990e-002 -1.4057073e-003 -3.9829098e-005  1.4062715e-003  2.1094173e-002  2.1094173e-002  2.1095162e-002 
 2.6249984e-001  1.2499990e-002 -4.2046770e-003  5.4459470e-005  4.2050295e-003  2.0521086e-002  2.0521086e-002  2.0529928e-002 
 2.8749990e-001  1.2499990e-002 -7.8012184e-003  2.0272232e-004  7.8038517e-003  1.9892856e-002  1.9892856e-002  1.9923307e-002 
 3.1249988e-001  1.2499990e-002 -1.2230295e-002  4.1162246e-004  1.2237219e-002  1.9235799e-002  1.9235799e-002  1.9310674e-002 
 3.3749995e-001  1.2499990e-002 -1.7446674e-002  6.8159366e-004  1.7459983e-002  1.8592361e-002  1.8592361e-002  1.8744787e-002 
 3.6250001e-001  1.2499990e-002 -2.3303678e-002  1.0001508e-003  2.3325130e-002  1.8020704e-002  1.8020704e-002  1.8292734e-002 
 3.8749999e-001  1.2499990e-002 -2.9539848e-002  1.3349147e-003  2.9569995e-002  1.7590292e-002  1.7590292e-002  1.8027484e-002 
 4.1250005e-001  1.2499990e-002 -3.5778016e-002  1.6316092e-003  3.5815202e-002  1.7373038e-002  1.7373038e-002  1.8014403e-002 
 4.3750012e-001  1.2499990e-002 -4.1541006e-002  1.8238535e-003  4.1581023e-002  1.7430857e-002  1.7430857e-002  1.8295348e-002 
 4.6250010e-001  1.2499990e-002 -4.6287298e-002  1.8449577e-003  4.6324052e-002  1.7801290e-002  1.7801290e-002  1.8874248e-002 
 4.8750013e-001  1.2499990e-002 -4.9481481e-002  1.5924467e-003  4.9507100e-002  1.8479133e-002  1.8479133e-002  1.9704610e-002 
 5.1250017e-001  1.2499990e-002 -5.0717793e-002  9.8624267e-004  5.0727382e-002  1.9401468e-002  1.9401468e-002  2.0688102e-002 
 5.3750026e-001  1.2499990e-002 -4.9632642e-002  5.4898905e-004  4.9635679e-002  2.0562710e-002  2.0562710e-002  2.1794561e-002 
 5.6250030e-001  1.2499990e-002 -4.5916401e-002 -1.5207907e-004  4.5916654e-002  2.1740247e-002  2.1740247e-002  2.2794416e-002 
 5.8750033e-001  1.2499990e-002 -3.9789923e-002 -8.9954794e-004  3.9800089e-002  2.2786275e-002  2.2786275e-002  2.3578297e-002 
 6.1250037e-001  1.2499990e-002 -3.1595279e-002 -1.5415445e-003  3.1632863e-002  2.3530992e-002  2.3530992e-002  2.4031311e-002 
 6.3750041e-001  1.2499990e-002 -2.1937219e-002 -1.9552328e-003  2.2024181e-002  2.3827054e-002  2.3827054e-002  2.4069587e-002 
 6.6250038e-001  1.2499990e-002 -1.1644941e-002 -2.0483278e-003  1.1823718e-002  2.3589432e-002  2.3589432e-002  2.3659332e-002 
 6.8750048e-001  1.2499990e-002 -1.6730449e-003 -1.7839401e-003  2.4457150e-003  2.2821806e-002  2.2821806e-002  2.2824798e-002 
 7.1250051e-001  1.2499990e-002  7.0321937e-003 -1.2078932e-003  7.1351770e-003  2.1620071e-002  2.1620071e-002  2.1645525e-002 
 7.3750049e-001  1.2499990e-002  1.3687680e-002 -4.5297897e-004  1.3695174e-002  2.0149628e-002  2.0149628e-002  2.0243406e-002 
 7.6250052e-001  1.2499990e-002  1.7824963e-002  2.9493944e-004  1.7827403e-002  1.8605694e-002  1.8605694e-002  1.8764602e-002 
 7.8750062e-001  1.2499990e-002  1.9363543e-002  8.4800762e-004  1.9382102e-002  1.7164214e-002  1.7164214e-002  1.7352046e-002 
 8.1250060e-001  1.2499990e-002  1.8683502e-002  1.2233275e-003  1.8723508e-002  1.5971035e-002  1.5971035e-002  1.6146319e-002 
 8.3750063e-001  1.2499990e-002  1.6424028e-002  1.3096364e-003  1.6476160e-002  1.5057729e-002  1.5057729e-002  1.5193461e-002 
 8.6250067e-001  1.2499990e-002  1.3262180e-002  1.1897136e-003  1.3315435e-002  1.4424874e-002  1.4424874e-002  1.4513524e-002 
 8.8750076e-001  1.2499990e-002  9.8059811e-003  9.8212750e-004  9.8550413e-003  1.4030183e-002  1.4030183e-002  1.4078744e-002 
 9.1250080e-001  1.2499990e-002  6.4708642e-003  7.7000132e-004  6.5165162e-003  1.3816564e-002  1.3816564e-002  1.3837797e-002 
 9.3750083e-001  1.2499990e-002  3.4966604e-003  5.8057031e-004  3.5445304e-003  1.3733274e-002  1.3733274e-002  1.3739556e-002 
 9.6250087e-001  1.2499990e-002  1.1244564e-003  3.4389229e-004  1.1758674e-003  1.3750390e-002  1.3750390e-002  1.3751081e-002 
 9.8750043e-001  1.2499990e-002 -6.5189124e-005 -9.1978392e-005  1.1273707e-004  1.3854762e-002  1.3854762e-002  1.3854768e-002 
 1.0000000e+000  1.2499990e-002  0.0000000e+000  0.0000000e+000  0.0000000e+000  1.3906946e-002  1.3906946e-002  1.3906946e-002 
 0.0000000e+000  3.7499964e-002  0.0000000e+000  0.0000000e+000  0.0000000e+000  2.3450451e-002  2.3450451e-002  2.3450451e-002 
 1.2499990e-002  3.7499964e-002  4.1842359e-004 -1.0305055e-003  1.1122139e-003  2.3462618e-002  2.3462618e-002  2.3463236e-002 
 3.7499964e-002  3.7499964e-002  2.2023330e-003 -2.1561994e-003  3.0821203e-003  2.3486950e-002  2.3486950e-002  2.3491699e-002 
 6.2499940e-002  3.7499964e-002  4.3376689e-003 -2.0627491e-003  4.8031555e-003  2.3408586e-002  2.3408586e-002  2.3420122e-002 
 8.7499917e-002  3.7499964e-002  5.7285107e-003 -1.2879745e-003  5.8715171e-003  2.3251491e-002  2.3251491e-002  2.3268728e-002 
 1.1249990e-001  3.7499964e-002  5.8610118e-003 -2.9119372e-004  5.8682412e-003  2.3043793e-002  2.3043793e-002  2.3061011e-002 
 1.3749990e-001  3.7499964e-002  4.5852084e-003  6.8712106e-004  4.6364074e-003  2.2798745e-002  2.2798745e-002  2.2809492e-002 
 1.6249985e-001  3.7499964e-002  1.8659180e-003  1.6160725e-003  2.4684693e-003  2.2516904e-002  2.2516904e-002  2.2519952e-002 
 1.8749979e-001  3.7499964e-002 -2.3709901e-003  2.5861394e-003  3.5085198e-003  2.2190113e-002  2.2190113e-002  2.2196267e-002 
 2.1249980e-001  3.7499964e-002 -8.2873311e-003  3.7065553e-003  9.0784589e-003  2.1807743e-002  2.1807743e-002  2.1848952e-002 
 2.3749980e-001  3.7499964e-002 -1.6083997e-002  5.0354283e-003  1.6853798e-002  2.1361828e-002  2.1361828e-002  2.1503853e-002 
 2.6249984e-001  3.7499964e-002 -2.5905723e-002  6.5581729e-003  2.6722951e-002  2.0850284e-002  2.0850284e-002  2.1207342e-002 
 2.8749990e-001  3.7499964e-002 -3.7740249e-002  8.1894929e-003  3.8618572e-002  2.0279218e-002  2.0279218e-002  2.1024914e-002 
 3.1249988e-001  3.7499964e-002 -5.1339418e-002  9.7804945e-003  5.2262738e-002  1.9665686e-002  1.9665686e-002  2.1031383e-002 
 3.3749995e-001  3.7499964e-002 -6.6181049e-002  1.1129801e-002  6.7110382e-002  1.9040709e-002  1.9040709e-002  2.1292612e-002 
 3.6250001e-001  3.7499964e-002 -8.1486978e-002  1.2006433e-002  8.2366750e-002  1.8451367e-002  1.8451367e-002  2.1843508e-002 
 3.8749999e-001  3.7499964e-002 -9.6298769e-002  1.2185838e-002  9.7066715e-002  1.7960137e-002  1.7960137e-002  2.2671111e-002 
 4.1250005e-001  3.7499964e-002 -1.0958985e-001  1.1491117e-002  1.1019066e-001  1.7639406e-002  1.7639406e-002  2.3710396e-002 
 4.3750012e-001  3.7499964e-002 -1.2038536e-001  9.8278122e-003  1.2078584e-001  1.7559048e-002  1.7559048e-002  2.4853658e-002 
 4.6250010e-001  3.7499964e-002 -1.2786938e-001  7.1990560e-003  1.2807187e-001  1.7767137e-002  1.7767137e-002  2.5968339e-002 
 4.8750013e-001  3.7499964e-002 -1.3141587e-001  3.7011430e-003  1.3146798e-001  1.8285800e-002  1.8285800e-002  2.6927715e-002 
 5.1250017e-001  3.7499964e-002 -1.3050470e-001 -4.2762971e-004  1.3050540e-001  1.9133223e-002  1.9133223e-002  2.7649052e-002 
 5.3750026e-001  3.7499964e-002 -1.2519990e-001 -4.7332179e-003  1.2528934e-001  2.0116504e-002  2.0116504e-002  2.7965214e-002 
 5.6250030e-001  3.7499964e-002 -1.1561821e-001 -9.0875570e-003  1.1597481e-001  2.1193907e-002  2.1193907e-002  2.7918985e-002 
 5.8750033e-001  3.7499964e-002 -1.0204993e-001 -1.3010259e-002  1.0287593e-001  2.2180209e-002  2.2180209e-002  2.7471937e-002 
 6.1250037e-001  3.7499964e-002 -8.5152842e-002 -1.6085839e-002  8.6658873e-002  2.2895472e-002  2.2895472e-002  2.6650352e-002 
 6.3750041e-001  3.7499964e-002 -6.5834142e-002 -1.7937722e-002  6.8234131e-002  2.3186442e-002  2.3186442e-002  2.5514390e-002 
 6.6250038e-001  3.7499964e-002 -4.5245469e-002 -1.8279951e-002  4.8798658e-002  2.2962051e-002  2.2962051e-002  2.4152705e-002 
 6.8750048e-001  3.7499964e-002 -2.4729611e-002 -1.6989283e-002  3.0003157e-002  2.2221832e-002  2.2221832e-002  2.2671927e-002 
 7.1250051e-001  3.7499964e-002 -5.7135625e-003 -1.4176109e-002  1.5284203e-002  2.1062976e-002  2.1062976e-002  2.1179779e-002 
 7.3750049e-001  3.7499964e-002  1.0440703e-002 -1.0218965e-002  1.4609433e-002  1.9657165e-002  1.9657165e-002  1.9763883e-002 
 7.6250052e-001  3.7499964e-002  2.2615518e-002 -5.7303207e-003  2.3330200e-002  1.8205900e-002  1.8205900e-002  1.8478049e-002 
 7.8750062e-001  3.7499964e-002  3.0210307e-002 -1.4069005e-003  3.0243048e-002  1.6893614e-002  1.6893614e-002  1.7350934e-002 
 8.1250060e-001  3.7499964e-002  3.3199113e-002  2.2143347e-003  3.3272877e-002  1.5818007e-002  1.5818007e-002  1.6371550e-002 
 8.3750063e-001  3.7499964e-002  3.2136042e-002  4.6916963e-003  3.2476719e-002  1.5026915e-002  1.5026915e-002  1.5554284e-002 
 8.6250067e-001  3.7499964e-002  2.8091118e-002  5.9801489e-003  2.8720604e-002  1.4494194e-002  1.4494194e-002  1.4906630e-002 
 8.8750076e-001  3.7499964e-002  2.2260234e-002  6.2952116e-003  2.3133259e-002  1.4162587e-002  1.4162587e-002  1.4430161e-002 
 9.1250080e-001  3.7499964e-002  1.5718136e-002  5.9387097e-003  1.6802620e-002  1.3974030e-002  1.3974030e-002  1.4115194e-002 
 9.3750083e-001  3.7499964e-002  9.3089296e-003  5.0968002e-003  1.0612895e-002  1.3881962e-002  1.3881962e-002  1.3938279e-002 
 9.6250087e-001  3.7499964e-002  3.8091103e-003  3.6457456e-003  5.2726446e-003  1.3870681e-002  1.3870681e-002  1.3884581e-002 
 9.8750043e-001  3.7499964e-002  4.6841273e-004  1.2138737e-003  1.3011149e-003  1.3970161e-002  1.3970161e-002  1.3971007e-002 
 1.0000000e+000  3.7499964e-002  0.0000000e+000  0.0000000e+000  0.0000000e+000  1.4019900e-002  1.4019900e-002  1.4019900e-002 
 0.0000000e+000  6.2499940e-002  0.0000000e+000  0.0000000e+000  0.0000000e+000  2.3530537e-002  2.3530537e-002  2.3530537e-002 
 1.2499990e-002  6.2499940e-002  4.9026485e-004 -2.3867721e-003  2.4366044e-003  2.3537045e-002  2.3537045e-002  2.3540014e-002 
 3.7499964e-002  6.2499940e-002  2.2471696e-003 -4.3622064e-003  4.9069966e-003  2.3550060e-002  2.3550060e-002  2.3562100e-002 
 6.2499940e-002  6.2499940e-002  3.8847879e-003 -3.7579637e-003  5.4049855e-003  2.3462048e-002  2.3462048e-002  2.3476655e-002 
 8.7499917e-002  6.2499940e-002  4.1795154e-003 -1.6580352e-003  4.4963798e-003  2.3304567e-002  2.3304567e-002  2.3314675e-002 
 1.1249990e-001  6.2499940e-002  2.5129430e-003  1.0615516e-003  2.7279616e-003  2.3109423e-002  2.3109423e-002  2.3113145e-002 
 1.3749990e-001  6.2499940e-002 -1.3899761e-003  3.9328272e-003  4.1712304e-003  2.2888683e-002  2.2888683e-002  2.2897383e-002 
 1.6249985e-001  6.2499940e-002 -7.7157873e-003  6.8862089e-003  1.0341820e-002  2.2638369e-002  2.2638369e-002  2.2691846e-002 
 1.8749979e-001  6.2499940e-002 -1.6678037e-002  1.0072436e-002  1.9483605e-002  2.2344282e-002  2.2344282e-002  2.2534087e-002 
 2.1249980e-001  6.2499940e-002 -2.8498944e-002  1.3635946e-002  3.1593177e-002  2.1988776e-002  2.1988776e-002  2.2487840e-002 
 2.3749980e-001  6.2499940e-002 -4.3288212e-002  1.7563306e-002  4.6715513e-002  2.1555202e-002  2.1555202e-002  2.2646371e-002 
 2.6249984e-001  6.2499940e-002 -6.0893919e-002  2.1635618e-002  6.4623289e-002  2.1030677e-002  2.1030677e-002  2.3118762e-002 
 2.8749990e-001  6.2499940e-002 -8.0799580e-002  2.5455171e-002  8.4714450e-002  2.0409890e-002  2.0409890e-002  2.3998158e-002 
 3.1249988e-001  6.2499940e-002 -1.0211857e-001  2.8517982e-002  1.0602583e-001  1.9701729e-002  1.9701729e-002  2.5322467e-002 
 3.3749995e-001  6.2499940e-002 -1.2369655e-001  3.0314693e-002  1.2735705e-001  1.8936940e-002  1.8936940e-002  2.7046848e-002 
 3.6250001e-001  6.2499940e-002 -1.4428285e-001  3.0434925e-002  1.4745787e-001  1.8172564e-002  1.8172564e-002  2.9044477e-002 
 3.8749999e-001  6.2499940e-002 -1.6270435e-001  2.8640984e-002  1.6520597e-001  1.7489208e-002  1.7489208e-002  3.1135714e-002 
 4.1250005e-001  6.2499940e-002 -1.7798619e-001  2.4891743e-002  1.7971835e-001  1.6980266e-002  1.6980266e-002  3.3129606e-002 
 4.3750012e-001  6.2499940e-002 -1.8940435e-001  1.9323662e-002  1.9038753e-001  1.6734194e-002  1.6734194e-002  3.4857899e-002 
 4.6250010e-001  6.2499940e-002 -1.9648588e-001  1.2213186e-002  1.9686508e-001  1.6813194e-002  1.6813194e-002  3.6191124e-002 
 4.8750013e-001  6.2499940e-002 -1.9895668e-001  3.9493293e-003  1.9899587e-001  1.7244011e-002  1.7244011e-002  3.7043691e-002 
 5.1250017e-001  6.2499940e-002 -1.9667141e-001 -5.0044013e-003  1.9673507e-001  1.8016702e-002  1.8016702e-002  3.7369046e-002 
 5.3750026e-001  6.2499940e-002 -1.8965831e-001 -1.4227780e-002  1.9019124e-001  1.9029340e-002  1.9029340e-002  3.7115693e-002 
 5.6250030e-001  6.2499940e-002 -1.7804837e-001 -2.3070564e-002  1.7953683e-001  2.0148490e-002  2.0148490e-002  3.6265228e-002 
 5.8750033e-001  6.2499940e-002 -1.6211566e-001 -3.0949710e-002  1.6504355e-001  2.1203818e-002  2.1203818e-002  3.4823503e-002 
 6.1250037e-001  6.2499940e-002 -1.4232397e-001 -3.7221763e-002  1.4711075e-001  2.2009460e-002  2.2009460e-002  3.2830246e-002 
 6.3750041e-001  6.2499940e-002 -1.1937495e-001 -4.1262195e-002  1.2630497e-001  2.2400001e-002  2.2400001e-002  3.0376473e-002 
 6.6250038e-001  6.2499940e-002 -9.4239980e-002 -4.2543627e-002  1.0339794e-001  2.2269305e-002  2.2269305e-002  2.7614871e-002 
 6.8750048e-001  6.2499940e-002 -6.8166353e-002 -4.0753275e-002  7.9419650e-002  2.1603309e-002  2.1603309e-002  2.4757050e-002 
 7.1250051e-001  6.2499940e-002 -4.2629544e-002 -3.5921253e-002  5.5745982e-002  2.0492954e-002  2.0492954e-002  2.2046762e-002 
 7.3750049e-001  6.2499940e-002 -1.9212564e-002 -2.8517863e-002  3.4385916e-002  1.9116169e-002  1.9116169e-002  1.9707365e-002 
 7.6250052e-001  6.2499940e-002  5.8045081e-004 -1.9452995e-002  1.9461652e-002  1.7687948e-002  1.7687948e-002  1.7877327e-002 
 7.8750062e-001  6.2499940e-002  1.5552976e-002 -9.9373432e-003  1.8456593e-002  1.6401554e-002  1.6401554e-002  1.6571876e-002 
 8.1250060e-001  6.2499940e-002  2.5055995e-002 -1.2346690e-003  2.5086397e-002  1.5379486e-002  1.5379486e-002  1.5694149e-002 
 8.3750063e-001  6.2499940e-002  2.9164815e-002  5.6755571e-003  2.9711923e-002  1.4670854e-002  1.4670854e-002  1.5112254e-002 
 8.6250067e-001  6.2499940e-002  2.8611591e-002  1.0296892e-002  3.0408043e-002  1.4232522e-002  1.4232522e-002  1.4694846e-002 
 8.8750076e-001  6.2499940e-002  2.4592647e-002  1.2652281e-002  2.7656438e-002  1.3991205e-002  1.3991205e-002  1.4373644e-002 
 9.1250080e-001  6.2499940e-002  1.8461587e-002  1.3104237e-002  2.2639593e-002  1.3873321e-002  1.3873321e-002  1.4129597e-002 
 9.3750083e-001  6.2499940e-002  1.1498091e-002  1.1972439e-002  1.6599560e-002  1.3823761e-002  1.3823761e-002  1.3961533e-002 
 9.6250087e-001  6.2499940e-002  4.9578566e-003  9.1216341e-003  1.0381934e-002  1.3829988e-002  1.3829988e-002  1.3883880e-002 
 9.8750043e-001  6.2499940e-002  6.7404954e-004  3.8036066e-003  3.8628702e-003  1.3949157e-002  1.3949157e-002  1.3956618e-002 
 1.0000000e+000  6.2499940e-002  0.0000000e+000  0.0000000e+000  0.0000000e+000  1.4008740e-002  1.4008740e-002  1.4008740e-002 
 0.0000000e+000  8.7499917e-002  0.0000000e+000  0.0000000e+000  0.0000000e+000  2.3731822e-002  2.3731822e-002  2.3731822e-002 
 1.2499990e-002  8.7499917e-002  4.5522364e-004 -3.5611417e-003  3.5901195e-003  2.3720592e-002  2.3720592e-002  2.3727037e-002 
 3.7499964e-002  8.7499917e-002  1.4320862e-003 -5.8010360e-003  5.9751896e-003  2.3698134e-002  2.3698134e-002  2.3715986e-002 
 6.2499940e-002  8.7499917e-002  1.4470228e-003 -4.0172231e-003  4.2698896e-003  2.3589050e-002  2.3589050e-002  2.3598166e-002 
 8.7499917e-002  8.7499917e-002 -5.8935932e-004  1.0614057e-004  5.9884076e-004  2.3421688e-002  2.3421688e-002  2.3421867e-002 
 1.1249990e-001  8.7499917e-002 -5.3089582e-003  5.3176172e-003  7.5141261e-003  2.3228617e-002  2.3228617e-002  2.3256848e-002 
 1.3749990e-001  8.7499917e-002 -1.3087289e-002  1.0975727e-002  1.7080506e-002  2.3019036e-002  2.3019036e-002  2.3164907e-002 
 1.6249985e-001  8.7499917e-002 -2.4233073e-002  1.6986102e-002  2.9593403e-002  2.2779938e-002  2.2779938e-002  2.3217823e-002 
 1.8749979e-001  8.7499917e-002 -3.9003238e-002  2.3476001e-002  4.5523349e-002  2.2484032e-002  2.2484032e-002  2.3520220e-002 
 2.1249980e-001  8.7499917e-002 -5.7468016e-002  3.0442132e-002  6.5033041e-002  2.2097612e-002  2.2097612e-002  2.4212260e-002 
 2.3749980e-001  8.7499917e-002 -7.9333380e-002  3.7556052e-002  8.7773815e-002  2.1586342e-002  2.1586342e-002  2.5438463e-002 
 2.6249984e-001  8.7499917e-002 -1.0384373e-001  4.4172637e-002  1.1284831e-001  2.0921808e-002  2.0921808e-002  2.7289178e-002 
 2.8749990e-001  8.7499917e-002 -1.2983692e-001  4.9482282e-002  1.3894647e-001  2.0091537e-002  2.0091537e-002  2.9744597e-002 
 3.1249988e-001  8.7499917e-002 -1.5593706e-001  5.2717350e-002  1.6460706e-001  1.9110586e-002  1.9110586e-002  3.2658331e-002 
 3.3749995e-001  8.7499917e-002 -1.8079683e-001  5.3326689e-002  1.8849729e-001  1.8029058e-002  1.8029058e-002  3.5794672e-002 
 3.6250001e-001  8.7499917e-002 -2.0328639e-001  5.1060565e-002  2.0960091e-001  1.6930858e-002  1.6930858e-002  3.8897127e-002 
 3.8749999e-001  8.7499917e-002 -2.2257602e-001  4.5958072e-002  2.2727127e-001  1.5923178e-002  1.5923178e-002  4.1749291e-002 
 4.1250005e-001  8.7499917e-002 -2.3812106e-001  3.8273677e-002  2.4117735e-001  1.5119925e-002  1.5119925e-002  4.4203181e-002 
 4.3750012e-001  8.7499917e-002 -2.4959399e-001  2.8391052e-002  2.5120354e-001  1.4622677e-002  1.4622677e-002  4.6174284e-002 
 4.6250010e-001  8.7499917e-002 -2.5680491e-001  1.6759336e-002  2.5735119e-001  1.4503355e-002  1.4503355e-002  4.7618173e-002 
 4.8750013e-001  8.7499917e-002 -2.5962934e-001  3.8650769e-003  2.5965810e-001  1.4794558e-002  1.4794558e-002  4.8505723e-002 
 5.1250017e-001  8.7499917e-002 -2.5796843e-001 -9.7796107e-003  2.5815374e-001  1.5478821e-002  1.5478821e-002  4.8800495e-002 
 5.3750026e-001  8.7499917e-002 -2.5173512e-001 -2.3637524e-002  2.5284246e-001  1.6475055e-002  1.6475055e-002  4.8439708e-002 
 5.6250030e-001  8.7499917e-002 -2.4088925e-001 -3.7036318e-002  2.4371976e-001  1.7657658e-002  1.7657658e-002  4.7357317e-002 
 5.8750033e-001  8.7499917e-002 -2.2546512e-001 -4.9232446e-002  2.3077771e-001  1.8857451e-002  1.8857451e-002  4.5486629e-002 
 6.1250037e-001  8.7499917e-002 -2.0562705e-001 -5.9384368e-002  2.1403034e-001  1.9883452e-002  1.9883452e-002  4.2787947e-002 
 6.3750041e-001  8.7499917e-002 -1.8174031e-001 -6.6604398e-002  1.9356056e-001  2.0552764e-002  2.0552764e-002  3.9285608e-002 
 6.6250038e-001  8.7499917e-002 -1.5445621e-001 -7.0052937e-002  1.6959994e-001  2.0729447e-002  2.0729447e-002  3.5111513e-002 
 6.8750048e-001  8.7499917e-002 -1.2478556e-001 -6.9093697e-002  1.4263721e-001  2.0361759e-002  2.0361759e-002  3.0534446e-002 
 7.1250051e-001  8.7499917e-002 -9.4130486e-002 -6.3491575e-002  1.1354174e-001  1.9504793e-002  1.9504793e-002  2.5950657e-002 
 7.3750049e-001  8.7499917e-002 -6.4229347e-002 -5.3603623e-002  8.3658576e-002  1.8314533e-002  1.8314533e-002  2.1813912e-002 
 7.6250052e-001  8.7499917e-002 -3.6980245e-002 -4.0475648e-002  5.4825328e-002  1.7007399e-002  1.7007399e-002  1.8510308e-002 
 7.8750062e-001  8.7499917e-002 -1.4146253e-002 -2.5742136e-002  2.9373016e-002  1.5796434e-002  1.5796434e-002  1.6227821e-002 
 8.1250060e-001  8.7499917e-002  2.9915350e-003 -1.1300295e-002  1.1689565e-002  1.4832315e-002  1.4832315e-002  1.4900638e-002 
 8.3750063e-001  8.7499917e-002  1.3923279e-002  1.1603424e-003  1.3971546e-002  1.4176798e-002  1.4176798e-002  1.4274400e-002 
 8.6250067e-001  8.7499917e-002  1.8958760e-002  1.0522197e-002  2.1682970e-002  1.3806080e-002  1.3806080e-002  1.4041156e-002 
 8.8750076e-001  8.7499917e-002  1.9086121e-002  1.6394483e-002  2.5160665e-002  1.3643951e-002  1.3643951e-002  1.3960481e-002 
 9.1250080e-001  8.7499917e-002  1.5705364e-002  1.8948888e-002  2.4611356e-002  1.3600828e-002  1.3600828e-002  1.3903688e-002 
 9.3750083e-001  8.7499917e-002  1.0329298e-002  1.8463615e-002  2.1156548e-002  1.3607062e-002  1.3607062e-002  1.3830862e-002 
 9.6250087e-001  8.7499917e-002  4.5554331e-003  1.4718756e-002  1.5407587e-002  1.3642122e-002  1.3642122e-002  1.3760819e-002 
 9.8750043e-001  8.7499917e-002  5.8151787e-004  6.5564048e-003  6.5821428e-003  1.3768842e-002  1.3768842e-002  1.3790505e-002 
 1.0000000e+000  8.7499917e-002  0.0000000e+000  0.0000000e+000  0.0000000e+000  1.3832202e-002  1.3832202e-002  1.3832202e-002 
 0.0000000e+000  1.1249990e-001  0.0000000e+000  0.0000000e+000  0.0000000e+000  2.4047077e-002  2.4047077e-002  2.4047077e-002 
 1.2499990e-002  1.1249990e-001  3.1623850e-004 -4.1107759e-003  4.1229217e-003  2.4008261e-002  2.4008261e-002  2.4016760e-002 
 3.7499964e-002  1.1249990e-001 -1.5443978e-004 -5.5383146e-003  5.5404673e-003  2.3930632e-002  2.3930632e-002  2.3945980e-002 
 6.2499940e-002  1.1249990e-001 -2.7179234e-003 -1.7330144e-003  3.2234215e-003  2.3792710e-002  2.3792710e-002  2.3797905e-002 
 8.7499917e-002  1.1249990e-001 -8.0819018e-003  5.1596090e-003  9.5884670e-003  2.3607161e-002  2.3607161e-002  2.3653131e-002 
 1.1249990e-001  1.1249990e-001 -1.6824178e-002  1.3627253e-002  2.1650750e-002  2.3399713e-002  2.3399713e-002  2.3634089e-002 
 1.3749990e-001  1.1249990e-001 -2.9373437e-002  2.2915130e-002  3.7254557e-002  2.3170834e-002  2.3170834e-002  2.3864785e-002 
 1.6249985e-001  1.1249990e-001 -4.6043482e-002  3.2846898e-002  5.6559004e-002  2.2890655e-002  2.2890655e-002  2.4490116e-002 
 1.8749979e-001  1.1249990e-001 -6.6916384e-002  4.3333117e-002  7.9721779e-002  2.2509996e-002  2.2509996e-002  2.5687777e-002 
 2.1249980e-001  1.1249990e-001 -9.1635160e-002  5.3961419e-002  1.0634302e-001  2.1971429e-002  2.1971429e-002  2.7625848e-002 
 2.3749980e-001  1.1249990e-001 -1.1930092e-001  6.3893378e-002  1.3533320e-001  2.1220857e-002  2.1220857e-002  3.0378394e-002 
 2.6249984e-001  1.1249990e-001 -1.4857692e-001  7.2053239e-002  1.6512652e-001  2.0222027e-002  2.0222027e-002  3.3855412e-002 
 2.8749990e-001  1.1249990e-001 -1.7795543e-001  7.7436373e-002  1.9407351e-001  1.8972017e-002  1.8972017e-002  3.7804279e-002 
 3.1249988e-001  1.1249990e-001 -2.0605105e-001  7.9358473e-002  2.2080490e-001  1.7511327e-002  1.7511327e-002  4.1888729e-002 
 3.3749995e-001  1.1249990e-001 -2.3179163e-001  7.7550873e-002  2.4442074e-001  1.5923554e-002  1.5923554e-002  4.5794304e-002 
 3.6250001e-001  1.1249990e-001 -2.5446337e-001  7.2110295e-002  2.6448345e-001  1.4324728e-002  1.4324728e-002  4.9300481e-002 
 3.8749999e-001  1.1249990e-001 -2.7364975e-001  6.3374937e-002  2.8089246e-001  1.2846654e-002  1.2846654e-002  5.2296940e-002 
 4.1250005e-001  1.1249990e-001 -2.8913134e-001  5.1800296e-002  2.9373491e-001  1.1619101e-002  1.1619101e-002  5.4759204e-002 
 4.3750012e-001  1.1249990e-001 -3.0079535e-001  3.7875608e-002  3.0317059e-001  1.0753637e-002  1.0753637e-002  5.6709837e-002 
 4.6250010e-001  1.1249990e-001 -3.0857199e-001  2.2087468e-002  3.0936149e-001  1.0330427e-002  1.0330427e-002  5.8182694e-002 
 4.8750013e-001  1.1249990e-001 -3.1239167e-001  4.9182866e-003  3.1243038e-001  1.0390472e-002  1.0390472e-002  5.9196845e-002 