Variables = "x","y", "Velocity_x", "Velocity_y", "Velocity_whole value", "Pressure", "Absolute pressure", "Total pressure"
Zone i=82, j=82
 0.0000000e+000  0.0000000e+000  0.0000000e+000  0.0000000e+000  0.0000000e+000  1.9005783e-002  1.9005783e-002  1.9005783e-002 
 6.2499950e-003  0.0000000e+000  0.0000000e+000  0.0000000e+000  0.0000000e+000  1.9020794e-002  1.9020794e-002  1.9020794e-002 
 1.8749986e-002  0.0000000e+000  0.0000000e+000  0.0000000e+000  0.0000000e+000  1.9050814e-002  1.9050814e-002  1.9050814e-002 
 3.1249970e-002  0.0000000e+000  0.0000000e+000  0.0000000e+000  0.0000000e+000  1.9066701e-002  1.9066701e-002  1.9066701e-002 
 4.3749955e-002  0.0000000e+000  0.0000000e+000  0.0000000e+000  0.0000000e+000  1.9057024e-002  1.9057024e-002  1.9057024e-002 
 5.6249946e-002  0.0000000e+000  0.0000000e+000  0.0000000e+000  0.0000000e+000  1.9016789e-002  1.9016789e-002  1.9016789e-002 
 6.8749934e-002  0.0000000e+000  0.0000000e+000  0.0000000e+000  0.0000000e+000  1.8946609e-002  1.8946609e-002  1.8946609e-002 
 8.1249923e-002  0.0000000e+000  0.0000000e+000  0.0000000e+000  0.0000000e+000  1.8850064e-002  1.8850064e-002  1.8850064e-002 
 9.3749911e-002  0.0000000e+000  0.0000000e+000  0.0000000e+000  0.0000000e+000  1.8731713e-002  1.8731713e-002  1.8731713e-002 
 1.0624990e-001  0.0000000e+000  0.0000000e+000  0.0000000e+000  0.0000000e+000  1.8595811e-002  1.8595811e-002  1.8595811e-002 
 1.1874990e-001  0.0000000e+000  0.0000000e+000  0.0000000e+000  0.0000000e+000  1.8445637e-002  1.8445637e-002  1.8445637e-002 
 1.3124990e-001  0.0000000e+000  0.0000000e+000  0.0000000e+000  0.0000000e+000  1.8283188e-002  1.8283188e-002  1.8283188e-002 
 1.4374995e-001  0.0000000e+000  0.0000000e+000  0.0000000e+000  0.0000000e+000  1.8109098e-002  1.8109098e-002  1.8109098e-002 
 1.5625000e-001  0.0000000e+000  0.0000000e+000  0.0000000e+000  0.0000000e+000  1.7922845e-002  1.7922845e-002  1.7922845e-002 
 1.6875005e-001  0.0000000e+000  0.0000000e+000  0.0000000e+000  0.0000000e+000  1.7723009e-002  1.7723009e-002  1.7723009e-002 
 1.8125010e-001  0.0000000e+000  0.0000000e+000  0.0000000e+000  0.0000000e+000  1.7507670e-002  1.7507670e-002  1.7507670e-002 
 1.9375014e-001  0.0000000e+000  0.0000000e+000  0.0000000e+000  0.0000000e+000  1.7274752e-002  1.7274752e-002  1.7274752e-002 
 2.0625019e-001  0.0000000e+000  0.0000000e+000  0.0000000e+000  0.0000000e+000  1.7022345e-002  1.7022345e-002  1.7022345e-002 
 2.1875025e-001  0.0000000e+000  0.0000000e+000  0.0000000e+000  0.0000000e+000  1.6748935e-002  1.6748935e-002  1.6748935e-002 
 2.3125030e-001  0.0000000e+000  0.0000000e+000  0.0000000e+000  0.0000000e+000  1.6453573e-002  1.6453573e-002  1.6453573e-002 
 2.4375033e-001  0.0000000e+000  0.0000000e+000  0.0000000e+000  0.0000000e+000  1.6136020e-002  1.6136020e-002  1.6136020e-002 
 2.5625038e-001  0.0000000e+000  0.0000000e+000  0.0000000e+000  0.0000000e+000  1.5796829e-002  1.5796829e-002  1.5796829e-002 
 2.6875046e-001  0.0000000e+000  0.0000000e+000  0.0000000e+000  0.0000000e+000  1.5437419e-002  1.5437419e-002  1.5437419e-002 
 2.8125051e-001  0.0000000e+000  0.0000000e+000  0.0000000e+000  0.0000000e+000  1.5060200e-002  1.5060200e-002  1.5060200e-002 
 2.9375049e-001  0.0000000e+000  0.0000000e+000  0.0000000e+000  0.0000000e+000  1.4668649e-002  1.4668649e-002  1.4668649e-002 
 3.0625054e-001  0.0000000e+000  0.0000000e+000  0.0000000e+000  0.0000000e+000  1.4267398e-002  1.4267398e-002  1.4267398e-002 
 3.1875062e-001  0.0000000e+000  0.0000000e+000  0.0000000e+000  0.0000000e+000  1.3862323e-002  1.3862323e-002  1.3862323e-002 
 3.3125067e-001  0.0000000e+000  0.0000000e+000  0.0000000e+000  0.0000000e+000  1.3460550e-002  1.3460550e-002  1.3460550e-002 
 3.4375072e-001  0.0000000e+000  0.0000000e+000  0.0000000e+000  0.0000000e+000  1.3070451e-002  1.3070451e-002  1.3070451e-002 
 3.5625076e-001  0.0000000e+000  0.0000000e+000  0.0000000e+000  0.0000000e+000  1.2701502e-002  1.2701502e-002  1.2701502e-002 
 3.6875081e-001  0.0000000e+000  0.0000000e+000  0.0000000e+000  0.0000000e+000  1.2364156e-002  1.2364156e-002  1.2364156e-002 
 3.8125086e-001  0.0000000e+000  0.0000000e+000  0.0000000e+000  0.0000000e+000  1.2069542e-002  1.2069542e-002  1.2069542e-002 
 3.9375091e-001  0.0000000e+000  0.0000000e+000  0.0000000e+000  0.0000000e+000  1.1829103e-002  1.1829103e-002  1.1829103e-002 
 4.0625095e-001  0.0000000e+000  0.0000000e+000  0.0000000e+000  0.0000000e+000  1.1654196e-002  1.1654196e-002  1.1654196e-002 
 4.1875100e-001  0.0000000e+000  0.0000000e+000  0.0000000e+000  0.0000000e+000  1.1555551e-002  1.1555551e-002  1.1555551e-002 
 4.3125105e-001  0.0000000e+000  0.0000000e+000  0.0000000e+000  0.0000000e+000  1.1542726e-002  1.1542726e-002  1.1542726e-002 
 4.4375110e-001  0.0000000e+000  0.0000000e+000  0.0000000e+000  0.0000000e+000  1.1623513e-002  1.1623513e-002  1.1623513e-002 
 4.5625114e-001  0.0000000e+000  0.0000000e+000  0.0000000e+000  0.0000000e+000  1.1803336e-002  1.1803336e-002  1.1803336e-002 
 4.6875119e-001  0.0000000e+000  0.0000000e+000  0.0000000e+000  0.0000000e+000  1.2084680e-002  1.2084680e-002  1.2084680e-002 
 4.8125124e-001  0.0000000e+000  0.0000000e+000  0.0000000e+000  0.0000000e+000  1.2466665e-002  1.2466665e-002  1.2466665e-002 
 4.9375129e-001  0.0000000e+000  0.0000000e+000  0.0000000e+000  0.0000000e+000  1.2944555e-002  1.2944555e-002  1.2944555e-002 
 5.0625134e-001  0.0000000e+000  0.0000000e+000  0.0000000e+000  0.0000000e+000  1.3506954e-002  1.3506954e-002  1.3506954e-002 
 5.1875138e-001  0.0000000e+000  0.0000000e+000  0.0000000e+000  0.0000000e+000  1.4132156e-002  1.4132156e-002  1.4132156e-002 
 5.3125143e-001  0.0000000e+000  0.0000000e+000  0.0000000e+000  0.0000000e+000  1.4839588e-002  1.4839588e-002  1.4839588e-002 
 5.4375148e-001  0.0000000e+000  0.0000000e+000  0.0000000e+000  0.0000000e+000  1.5573015e-002  1.5573015e-002  1.5573015e-002 
 5.5625153e-001  0.0000000e+000  0.0000000e+000  0.0000000e+000  0.0000000e+000  1.6316129e-002  1.6316129e-002  1.6316129e-002 
 5.6875157e-001  0.0000000e+000  0.0000000e+000  0.0000000e+000  0.0000000e+000  1.7044678e-002  1.7044678e-002  1.7044678e-002 
 5.8125162e-001  0.0000000e+000  0.0000000e+000  0.0000000e+000  0.0000000e+000  1.7731041e-002  1.7731041e-002  1.7731041e-002 
 5.9375167e-001  0.0000000e+000  0.0000000e+000  0.0000000e+000  0.0000000e+000  1.8347561e-002  1.8347561e-002  1.8347561e-002 
 6.0625172e-001  0.0000000e+000  0.0000000e+000  0.0000000e+000  0.0000000e+000  1.8868048e-002  1.8868048e-002  1.8868048e-002 
 6.1875176e-001  0.0000000e+000  0.0000000e+000  0.0000000e+000  0.0000000e+000  1.9269198e-002  1.9269198e-002  1.9269198e-002 
 6.3125181e-001  0.0000000e+000  0.0000000e+000  0.0000000e+000  0.0000000e+000  1.9532058e-002  1.9532058e-002  1.9532058e-002 
 6.4375186e-001  0.0000000e+000  0.0000000e+000  0.0000000e+000  0.0000000e+000  1.9643262e-002  1.9643262e-002  1.9643262e-002 
 6.5625191e-001  0.0000000e+000  0.0000000e+000  0.0000000e+000  0.0000000e+000  1.9595992e-002  1.9595992e-002  1.9595992e-002 
 6.6875196e-001  0.0000000e+000  0.0000000e+000  0.0000000e+000  0.0000000e+000  1.9390555e-002  1.9390555e-002  1.9390555e-002 
 6.8125200e-001  0.0000000e+000  0.0000000e+000  0.0000000e+000  0.0000000e+000  1.9034494e-002  1.9034494e-002  1.9034494e-002 
 6.9375205e-001  0.0000000e+000  0.0000000e+000  0.0000000e+000  0.0000000e+000  1.8542159e-002  1.8542159e-002  1.8542159e-002 
 7.0625210e-001  0.0000000e+000  0.0000000e+000  0.0000000e+000  0.0000000e+000  1.7933767e-002  1.7933767e-002  1.7933767e-002 
 7.1875215e-001  0.0000000e+000  0.0000000e+000  0.0000000e+000  0.0000000e+000  1.7233735e-002  1.7233735e-002  1.7233735e-002 
 7.3125219e-001  0.0000000e+000  0.0000000e+000  0.0000000e+000  0.0000000e+000  1.6469136e-002  1.6469136e-002  1.6469136e-002 
 7.4375224e-001  0.0000000e+000  0.0000000e+000  0.0000000e+000  0.0000000e+000  1.5668180e-002  1.5668180e-002  1.5668180e-002 
 7.5625229e-001  0.0000000e+000  0.0000000e+000  0.0000000e+000  0.0000000e+000  1.4858387e-002  1.4858387e-002  1.4858387e-002 
 7.6875234e-001  0.0000000e+000  0.0000000e+000  0.0000000e+000  0.0000000e+000  1.4064907e-002  1.4064907e-002  1.4064907e-002 
 7.8125238e-001  0.0000000e+000  0.0000000e+000  0.0000000e+000  0.0000000e+000  1.3308814e-002  1.3308814e-002  1.3308814e-002 
 7.9375243e-001  0.0000000e+000  0.0000000e+000  0.0000000e+000  0.0000000e+000  1.2605775e-002  1.2605775e-002  1.2605775e-002 
 8.0625248e-001  0.0000000e+000  0.0000000e+000  0.0000000e+000  0.0000000e+000  1.1973785e-002  1.1973785e-002  1.1973785e-002 
 8.1875253e-001  0.0000000e+000  0.0000000e+000  0.0000000e+000  0.0000000e+000  1.1414170e-002  1.1414170e-002  1.1414170e-002 
 8.3125257e-001  0.0000000e+000  0.0000000e+000  0.0000000e+000  0.0000000e+000  1.0930990e-002  1.0930990e-002  1.0930990e-002 
 8.4375262e-001  0.0000000e+000  0.0000000e+000  0.0000000e+000  0.0000000e+000  1.0523748e-002  1.0523748e-002  1.0523748e-002 
 8.5625267e-001  0.0000000e+000  0.0000000e+000  0.0000000e+000  0.0000000e+000  1.0188574e-002  1.0188574e-002  1.0188574e-002 
 8.6875272e-001  0.0000000e+000  0.0000000e+000  0.0000000e+000  0.0000000e+000  9.9195652e-003  9.9195652e-003  9.9195652e-003 
 8.8125277e-001  0.0000000e+000  0.0000000e+000  0.0000000e+000  0.0000000e+000  9.7097028e-003  9.7097028e-003  9.7097028e-003 
 8.9375281e-001  0.0000000e+000  0.0000000e+000  0.0000000e+000  0.0000000e+000  9.5516751e-003  9.5516751e-003  9.5516751e-003 
 9.0625286e-001  0.0000000e+000  0.0000000e+000  0.0000000e+000  0.0000000e+000  9.4385929e-003  9.4385929e-003  9.4385929e-003 
 9.1875291e-001  0.0000000e+000  0.0000000e+000  0.0000000e+000  0.0000000e+000  9.3645593e-003  9.3645593e-003  9.3645593e-003 
 9.3125296e-001  0.0000000e+000  0.0000000e+000  0.0000000e+000  0.0000000e+000  9.3249939e-003  9.3249939e-003  9.3249939e-003 
 9.4375300e-001  0.0000000e+000  0.0000000e+000  0.0000000e+000  0.0000000e+000  9.3165226e-003  9.3165226e-003  9.3165226e-003 
 9.5625305e-001  0.0000000e+000  0.0000000e+000  0.0000000e+000  0.0000000e+000  9.3360795e-003  9.3360795e-003  9.3360795e-003 
 9.6875310e-001  0.0000000e+000  0.0000000e+000  0.0000000e+000  0.0000000e+000  9.3782395e-003  9.3782395e-003  9.3782395e-003 
 9.8125315e-001  0.0000000e+000  0.0000000e+000  0.0000000e+000  0.0000000e+000  9.4308760e-003  9.4308760e-003  9.4308760e-003 
 9.9375159e-001  0.0000000e+000  0.0000000e+000  0.0000000e+000  0.0000000e+000  9.4771953e-003  9.4771953e-003  9.4771953e-003 
 1.0000000e+000  0.0000000e+000  0.0000000e+000  0.0000000e+000  0.0000000e+000  9.5003517e-003  9.5003517e-003  9.5003517e-003 
 0.0000000e+000  6.2499950e-003  0.0000000e+000  0.0000000e+000  0.0000000e+000  1.8990960e-002  1.8990960e-002  1.8990960e-002 
 6.2499950e-003  6.2499950e-003 -2.3032104e-005  2.2361086e-005  3.2101339e-005  1.9005995e-002  1.9005995e-002  1.9005995e-002 
 1.8749986e-002  6.2499950e-003  9.8601493e-005 -3.1532545e-005  1.0352080e-004  1.9036064e-002  1.9036064e-002  1.9036070e-002 
 3.1249970e-002  6.2499950e-003  3.8255565e-004 -6.5571730e-005  3.8813462e-004  1.9048350e-002  1.9048350e-002  1.9048424e-002 
 4.3749955e-002  6.2499950e-003  7.4674311e-004 -7.8415047e-005  7.5084897e-004  1.9036049e-002  1.9036049e-002  1.9036330e-002 
 5.6249946e-002  6.2499950e-003  1.1307428e-003 -7.7719160e-005  1.1334106e-003  1.8995598e-002  1.8995598e-002  1.8996241e-002 
 6.8749934e-002  6.2499950e-003  1.4896479e-003 -6.9185327e-005  1.4912536e-003  1.8927410e-002  1.8927410e-002  1.8928522e-002 
 8.1249923e-002  6.2499950e-003  1.7931841e-003 -5.7092864e-005  1.7940927e-003  1.8834561e-002  1.8834561e-002  1.8836170e-002 
 9.3749911e-002  6.2499950e-003  2.0245865e-003 -4.4420271e-005  2.0250739e-003  1.8721042e-002  1.8721042e-002  1.8723093e-002 
 1.0624990e-001  6.2499950e-003  2.1776734e-003 -3.3057353e-005  2.1779244e-003  1.8590616e-002  1.8590616e-002  1.8592987e-002 
 1.1874990e-001  6.2499950e-003  2.2534560e-003 -2.4025738e-005  2.2535841e-003  1.8446192e-002  1.8446192e-002  1.8448731e-002 
 1.3124990e-001  6.2499950e-003  2.2569736e-003 -1.7611597e-005  2.2570423e-003  1.8289540e-002  1.8289540e-002  1.8292086e-002 
 1.4374995e-001  6.2499950e-003  2.1944912e-003 -1.3572487e-005  2.1945331e-003  1.8121213e-002  1.8121213e-002  1.8123621e-002 
 1.5625000e-001  6.2499950e-003  2.0712712e-003 -1.1275212e-005  2.0713019e-003  1.7940704e-002  1.7940704e-002  1.7942850e-002 
 1.6875005e-001  6.2499950e-003  1.8900889e-003 -9.9172630e-006  1.8901149e-003  1.7746706e-002  1.7746706e-002  1.7748492e-002 
 1.8125010e-001  6.2499950e-003  1.6505026e-003 -8.6683622e-006  1.6505254e-003  1.7537439e-002  1.7537439e-002  1.7538801e-002 
 1.9375014e-001  6.2499950e-003  1.3488064e-003 -6.7871865e-006  1.3488235e-003  1.7310977e-002  1.7310977e-002  1.7311886e-002 
 2.0625019e-001  6.2499950e-003  9.7851572e-004 -3.6913291e-006  9.7852270e-004  1.7065525e-002  1.7065525e-002  1.7066004e-002 
 2.1875025e-001  6.2499950e-003  5.3116446e-004  1.0190089e-006  5.3116545e-004  1.6799651e-002  1.6799651e-002  1.6799793e-002 
 2.3125030e-001  6.2499950e-003 -2.8276368e-006  7.5855583e-006  8.0954442e-006  1.6512439e-002  1.6512439e-002  1.6512439e-002 
 2.4375033e-001  6.2499950e-003 -6.3330936e-004  1.6164393e-005  6.3351559e-004  1.6203610e-002  1.6203610e-002  1.6203811e-002 
 2.5625038e-001  6.2499950e-003 -1.3696541e-003  2.6847496e-005  1.3699172e-003  1.5873626e-002  1.5873626e-002  1.5874565e-002 
 2.6875046e-001  6.2499950e-003 -2.2201641e-003  3.9681177e-005  2.2205187e-003  1.5523767e-002  1.5523767e-002  1.5526232e-002 
 2.8125051e-001  6.2499950e-003 -3.1915135e-003  5.4697375e-005  3.1919822e-003  1.5156244e-002  1.5156244e-002  1.5161338e-002 
 2.9375049e-001  6.2499950e-003 -4.2882659e-003  7.1885246e-005  4.2888685e-003  1.4774294e-002  1.4774294e-002  1.4783490e-002 
 3.0625054e-001  6.2499950e-003 -5.5123791e-003  9.1165559e-005  5.5131330e-003  1.4382270e-002  1.4382270e-002  1.4397467e-002 
 3.1875062e-001  6.2499950e-003 -6.8626963e-003  1.1236929e-004  6.8636159e-003  1.3985728e-002  1.3985728e-002  1.4009283e-002 
 3.3125067e-001  6.2499950e-003 -8.3344774e-003  1.3522888e-004  8.3355745e-003  1.3591456e-002  1.3591456e-002  1.3626197e-002 
 3.4375072e-001  6.2499950e-003 -9.9189812e-003  1.5933381e-004  9.9202609e-003  1.3207464e-002  1.3207464e-002  1.3256669e-002 
 3.5625076e-001  6.2499950e-003 -1.1603140e-002  1.8413614e-004  1.1604602e-002  1.2842872e-002  1.2842872e-002  1.2910206e-002 
 3.6875081e-001  6.2499950e-003 -1.3369353e-002  2.0893371e-004  1.3370985e-002  1.2507784e-002  1.2507784e-002  1.2597176e-002 
 3.8125086e-001  6.2499950e-003 -1.5195397e-002  2.3289477e-004  1.5197181e-002  1.2213014e-002  1.2213014e-002  1.2328492e-002 
 3.9375091e-001  6.2499950e-003 -1.7054535e-002  2.5502293e-004  1.7056443e-002  1.1969741e-002  1.1969741e-002  1.2115202e-002 
 4.0625095e-001  6.2499950e-003 -1.8915800e-002  2.7424365e-004  1.8917788e-002  1.1789112e-002  1.1789112e-002  1.1968054e-002 
 4.1875100e-001  6.2499950e-003 -2.0744421e-002  2.8937217e-004  2.0746440e-002  1.1681737e-002  1.1681737e-002  1.1896945e-002 
 4.3125105e-001  6.2499950e-003 -2.2502443e-002  2.9919736e-004  2.2504432e-002  1.1657136e-002  1.1657136e-002  1.1910361e-002 
 4.4375110e-001  6.2499950e-003 -2.4149522e-002  3.0249250e-004  2.4151416e-002  1.1723161e-002  1.1723161e-002  1.2014806e-002 
 4.5625114e-001  6.2499950e-003 -2.5643835e-002  2.9810265e-004  2.5645567e-002  1.1885398e-002  1.1885398e-002  1.2214245e-002 
 4.6875119e-001  6.2499950e-003 -2.6943097e-002  2.8495534e-004  2.6944604e-002  1.2146608e-002  1.2146608e-002  1.2509614e-002 
 4.8125124e-001  6.2499950e-003 -2.8005499e-002  2.6222240e-004  2.8006727e-002  1.2506244e-002  1.2506244e-002  1.2898432e-002 
 4.9375129e-001  6.2499950e-003 -2.8790658e-002  2.2902995e-004  2.8791569e-002  1.2959852e-002  1.2959852e-002  1.3374330e-002 
 5.0625134e-001  6.2499950e-003 -2.9262835e-002  1.8034830e-004  2.9263390e-002  1.3497564e-002  1.3497564e-002  1.3925737e-002 
 5.1875138e-001  6.2499950e-003 -2.9401077e-002  1.0877287e-004  2.9401278e-002  1.4103172e-002  1.4103172e-002  1.4535390e-002 
 5.3125143e-001  6.2499950e-003 -2.9176127e-002  6.8280890e-005  2.9176207e-002  1.4778439e-002  1.4778439e-002  1.5204065e-002 
 5.4375148e-001  6.2499950e-003 -2.8559133e-002  6.4403816e-006  2.8559133e-002  1.5485108e-002  1.5485108e-002  1.5892919e-002 
 5.5625153e-001  6.2499950e-003 -2.7555000e-002 -6.5687498e-005  2.7555078e-002  1.6203562e-002  1.6203562e-002  1.6583202e-002 
 5.6875157e-001  6.2499950e-003 -2.6166659e-002 -1.4112005e-004  2.6167039e-002  1.6909191e-002  1.6909191e-002  1.7251549e-002 
 5.8125162e-001  6.2499950e-003 -2.4408216e-002 -2.1625671e-004  2.4409173e-002  1.7574914e-002  1.7574914e-002  1.7872818e-002 
 5.9375167e-001  6.2499950e-003 -2.2306545e-002 -2.8766113e-004  2.2308400e-002  1.8173566e-002  1.8173566e-002  1.8422399e-002 
 6.0625172e-001  6.2499950e-003 -1.9900752e-002 -3.5174689e-004  1.9903861e-002  1.8679366e-002  1.8679366e-002  1.8877447e-002 
 6.1875176e-001  6.2499950e-003 -1.7241498e-002 -4.0506851e-004  1.7246256e-002  1.9069355e-002  1.9069355e-002  1.9218072e-002 
 6.3125181e-001  6.2499950e-003 -1.4389833e-002 -4.4446858e-004  1.4396696e-002  1.9324820e-002  1.9324820e-002  1.9428452e-002 
 6.4375186e-001  6.2499950e-003 -1.1415335e-002 -4.6744620e-004  1.1424902e-002  1.9432556e-002  1.9432556e-002  1.9497819e-002 
 6.5625191e-001  6.2499950e-003 -8.3935726e-003 -4.7234353e-004  8.4068524e-003  1.9385805e-002  1.9385805e-002  1.9421143e-002 
 6.6875196e-001  6.2499950e-003 -5.4030195e-003 -4.5861257e-004  5.4224483e-003  1.9184845e-002  1.9184845e-002  1.9199546e-002 
 6.8125200e-001  6.2499950e-003 -2.5214895e-003 -4.2682700e-004  2.5573601e-003  1.8837068e-002  1.8837068e-002  1.8840339e-002 
 6.9375205e-001  6.2499950e-003  1.7762990e-004 -3.7873330e-004  4.1831960e-004  1.8356577e-002  1.8356577e-002  1.8356664e-002 
 7.0625210e-001  6.2499950e-003  2.6291334e-003 -3.1717622e-004  2.6481962e-003  1.7763192e-002  1.7763192e-002  1.7766699e-002 
 7.1875215e-001  6.2499950e-003  4.7791493e-003 -2.4630342e-004  4.7854921e-003  1.7080937e-002  1.7080937e-002  1.7092386e-002 
 7.3125219e-001  6.2499950e-003  6.5876171e-003 -1.7101115e-004  6.5898364e-003  1.6336486e-002  1.6336486e-002  1.6358199e-002 
 7.4375224e-001  6.2499950e-003  8.0301389e-003 -9.6060343e-005  8.0307135e-003  1.5557492e-002  1.5557492e-002  1.5589738e-002 
 7.5625229e-001  6.2499950e-003  9.0987263e-003 -2.5599034e-005  9.0987626e-003  1.4770765e-002  1.4770765e-002  1.4812158e-002 
 7.6875234e-001  6.2499950e-003  9.8012350e-003  3.6950452e-005  9.8013049e-003  1.4000631e-002  1.4000631e-002  1.4048664e-002 
 7.8125238e-001  6.2499950e-003  1.0159425e-002  8.8408538e-005  1.0159810e-002  1.3267524e-002  1.3267524e-002  1.3319135e-002 
 7.9375243e-001  6.2499950e-003  1.0204555e-002  1.2607692e-004  1.0205333e-002  1.2587007e-002  1.2587007e-002  1.2639081e-002 
 8.0625248e-001  6.2499950e-003  9.9799735e-003  1.5857289e-004  9.9812336e-003  1.1973588e-002  1.1973588e-002  1.2023401e-002 
 8.1875253e-001  6.2499950e-003  9.5332284e-003  1.7830102e-004  9.5348954e-003  1.1430824e-002  1.1430824e-002  1.1476281e-002 
 8.3125257e-001  6.2499950e-003  8.9104855e-003  1.8699039e-004  8.9124469e-003  1.0961909e-002  1.0961909e-002  1.1001625e-002 
 8.4375262e-001  6.2499950e-003  8.1588840e-003  1.8737557e-004  8.1610354e-003  1.0565985e-002  1.0565985e-002  1.0599286e-002 
 8.5625267e-001  6.2499950e-003  7.3217549e-003  1.8155997e-004  7.3240055e-003  1.0239226e-002  1.0239226e-002  1.0266046e-002 
 8.6875272e-001  6.2499950e-003  6.4367587e-003  1.7150694e-004  6.4390432e-003  9.9759214e-003  9.9759214e-003  9.9966517e-003 
 8.8125277e-001  6.2499950e-003  5.5349767e-003  1.5908226e-004  5.5372622e-003  9.7693335e-003  9.7693335e-003  9.7846640e-003 
 8.9375281e-001  6.2499950e-003  4.6407245e-003  1.4590283e-004  4.6430174e-003  9.6124541e-003  9.6124541e-003  9.6232332e-003 
 9.0625286e-001  6.2499950e-003  3.7722217e-003  1.3320478e-004  3.7745729e-003  9.4986586e-003  9.4986586e-003  9.5057823e-003 
 9.1875291e-001  6.2499950e-003  2.9432925e-003  1.2157613e-004  2.9458024e-003  9.4222091e-003  9.4222091e-003  9.4265481e-003 
 9.3125296e-001  6.2499950e-003  2.1663373e-003  1.1057604e-004  2.1691576e-003  9.3785413e-003  9.3785413e-003  9.3808938e-003 
 9.4375300e-001  6.2499950e-003  1.4568457e-003  9.8072291e-005  1.4601430e-003  9.3642119e-003  9.3642119e-003  9.3652783e-003 
 9.5625305e-001  6.2499950e-003  8.3898939e-004  7.9631740e-005  8.4276003e-004  9.3761152e-003  9.3761152e-003  9.3764700e-003 
 9.6875310e-001  6.2499950e-003  3.4889035e-004  4.8378068e-005  3.5222850e-004  9.4092349e-003  9.4092349e-003  9.4092973e-003 
 9.8125315e-001  6.2499950e-003  3.1846430e-005 -3.3607521e-006  3.2023268e-005  9.4540752e-003  9.4540752e-003  9.4540762e-003 
 9.9375159e-001  6.2499950e-003 -5.8897451e-005 -5.9566235e-005  8.3767809e-005  9.5004458e-003  9.5004458e-003  9.5004495e-003 
 1.0000000e+000  6.2499950e-003  0.0000000e+000  0.0000000e+000  0.0000000e+000  9.5236283e-003  9.5236283e-003  9.5236283e-003 
 0.0000000e+000  1.8749986e-002  0.0000000e+000  0.0000000e+000  0.0000000e+000  1.8961314e-002  1.8961314e-002  1.8961314e-002 
 6.2499950e-003  1.8749986e-002  2.9920109e-005 -9.7832213e-005  1.0230520e-004  1.8976398e-002  1.8976398e-002  1.8976403e-002 
 1.8749986e-002  1.8749986e-002  4.0396463e-004 -4.0549418e-004  5.7237485e-004  1.9006563e-002  1.9006563e-002  1.9006727e-002 
 3.1249970e-002  1.8749986e-002  1.0925280e-003 -6.1481254e-004  1.2536395e-003  1.9011648e-002  1.9011648e-002  1.9012434e-002 
 4.3749955e-002  1.8749986e-002  1.9326085e-003 -7.0622418e-004  2.0576026e-003  1.8994099e-002  1.8994099e-002  1.8996214e-002 
 5.6249946e-002  1.8749986e-002  2.8025745e-003 -7.0049817e-004  2.8887924e-003  1.8953215e-002  1.8953215e-002  1.8957388e-002 
 6.8749934e-002  1.8749986e-002  3.6065697e-003 -6.2437583e-004  3.6602172e-003  1.8889014e-002  1.8889014e-002  1.8895712e-002 
 8.1249923e-002  1.8749986e-002  4.2740507e-003 -5.0384435e-004  4.3036458e-003  1.8803556e-002  1.8803556e-002  1.8812817e-002 
 9.3749911e-002  1.8749986e-002  4.7607571e-003 -3.6081002e-004  4.7744103e-003  1.8699702e-002  1.8699702e-002  1.8711099e-002 
 1.0624990e-001  1.8749986e-002  5.0447192e-003 -2.1170074e-004  5.0491593e-003  1.8580226e-002  1.8580226e-002  1.8592972e-002 
 1.1874990e-001  1.8749986e-002  5.1201601e-003 -6.7128451e-005  5.1206001e-003  1.8447302e-002  1.8447302e-002  1.8460413e-002 
 1.3124990e-001  1.8749986e-002  4.9910103e-003  6.7809357e-005  4.9914708e-003  1.8302247e-002  1.8302247e-002  1.8314704e-002 
 1.4374995e-001  1.8749986e-002  4.6649138e-003  1.9271468e-004  4.6688928e-003  1.8145438e-002  1.8145438e-002  1.8156338e-002 
 1.5625000e-001  1.8749986e-002  4.1482602e-003  3.1070376e-004  4.1598799e-003  1.7976424e-002  1.7976424e-002  1.7985076e-002 
 1.6875005e-001  1.8749986e-002  3.4426963e-003  4.2700733e-004  3.4690767e-003  1.7794102e-002  1.7794102e-002  1.7800119e-002 
 1.8125010e-001  1.8749986e-002  2.5433509e-003  5.4762966e-004  2.6016403e-003  1.7596979e-002  1.7596979e-002  1.7600363e-002 
 1.9375014e-001  1.8749986e-002  1.4386058e-003  6.7821721e-004  1.5904608e-003  1.7383421e-002  1.7383421e-002  1.7384686e-002 
 2.0625019e-001  1.8749986e-002  1.1113469e-004  8.2323822e-004  8.3070580e-004  1.7151883e-002  1.7151883e-002  1.7152227e-002 
 2.1875025e-001  1.8749986e-002 -1.4602627e-003  9.8562345e-004  1.7617664e-003  1.6901087e-002  1.6901087e-002  1.6902639e-002 
 2.3125030e-001  1.8749986e-002 -3.2984687e-003  1.1666252e-003  3.4987011e-003  1.6630173e-002  1.6630173e-002  1.6636293e-002 
 2.4375033e-001  1.8749986e-002 -5.4258406e-003  1.3660139e-003  5.5951532e-003  1.6338792e-002  1.6338792e-002  1.6354445e-002 
 2.5625038e-001  1.8749986e-002 -7.8621628e-003  1.5822394e-003  8.0197938e-003  1.6027223e-002  1.6027223e-002  1.6059382e-002 
 2.6875046e-001  1.8749986e-002 -1.0622818e-002  1.8126257e-003  1.0776357e-002  1.5696462e-002  1.5696462e-002  1.5754526e-002 
 2.8125051e-001  1.8749986e-002 -1.3717148e-002  2.0534396e-003  1.3869995e-002  1.5348331e-002  1.5348331e-002  1.5444519e-002 
 2.9375049e-001  1.8749986e-002 -1.7146967e-002  2.2999679e-003  1.7300529e-002  1.4985583e-002  1.4985583e-002  1.5135237e-002 
 3.0625054e-001  1.8749986e-002 -2.0905275e-002  2.5464974e-003  2.1059800e-002  1.4612013e-002  1.4612013e-002  1.4833770e-002 
 3.1875062e-001  1.8749986e-002 -2.4975033e-002  2.7863549e-003  2.5129983e-002  1.4232538e-002  1.4232538e-002  1.4548296e-002 
 3.3125067e-001  1.8749986e-002 -2.9328277e-002  3.0120043e-003  2.9482538e-002  1.3853268e-002  1.3853268e-002  1.4287878e-002 
 3.4375072e-001  1.8749986e-002 -3.3925556e-002  3.2151900e-003  3.4077570e-002  1.3481489e-002  1.3481489e-002  1.4062130e-002 
 3.5625076e-001  1.8749986e-002 -3.8715757e-002  3.3871667e-003  3.8863644e-002  1.3125611e-002  1.3125611e-002  1.3880803e-002 
 3.6875081e-001  1.8749986e-002 -4.3636449e-002  3.5189595e-003  4.3778107e-002  1.2795041e-002  1.2795041e-002  1.3753302e-002 
 3.8125086e-001  1.8749986e-002 -4.8614629e-002  3.6017229e-003  4.8747867e-002  1.2499959e-002  1.2499959e-002  1.3688137e-002 
 3.9375091e-001  1.8749986e-002 -5.3568032e-002  3.6270472e-003  5.3690683e-002  1.2251015e-002  1.2251015e-002  1.3692359e-002 
 4.0625095e-001  1.8749986e-002 -5.8406867e-002  3.5873812e-003  5.8516935e-002  1.2058944e-002  1.2058944e-002  1.3771060e-002 
 4.1875100e-001  1.8749986e-002 -6.3035876e-002  3.4763210e-003  6.3131660e-002  1.1934109e-002  1.1934109e-002  1.3926912e-002 
 4.3125105e-001  1.8749986e-002 -6.7356706e-002  3.2889866e-003  6.7436956e-002  1.1885955e-002  1.1885955e-002  1.4159827e-002 
 4.4375110e-001  1.8749986e-002 -7.1270518e-002  3.0222593e-003  7.1334571e-002  1.1922456e-002  1.1922456e-002  1.4466766e-002 
 4.5625114e-001  1.8749986e-002 -7.4680574e-002  2.6750783e-003  7.4728467e-002  1.2049524e-002  1.2049524e-002  1.4841696e-002 
 4.6875119e-001  1.8749986e-002 -7.7494904e-002  2.2485526e-003  7.7527516e-002  1.2270465e-002  1.2270465e-002  1.5275723e-002 
 4.8125124e-001  1.8749986e-002 -7.9629011e-002  1.7461267e-003  7.9648152e-002  1.2585402e-002  1.2585402e-002  1.5757315e-002 
 4.9375129e-001  1.8749986e-002 -8.1009679e-002  1.1733461e-003  8.1018172e-002  1.2990448e-002  1.2990448e-002  1.6272420e-002 
 5.0625134e-001  1.8749986e-002 -8.1575945e-002  5.3660490e-004  8.1577711e-002  1.3478786e-002  1.3478786e-002  1.6806247e-002 
 5.1875138e-001  1.8749986e-002 -8.1266515e-002 -1.5287461e-004  8.1266657e-002  1.4045204e-002  1.4045204e-002  1.7347340e-002 
 5.3125143e-001  1.8749986e-002 -8.0066428e-002 -8.5384655e-004  8.0070980e-002  1.4656142e-002  1.4656142e-002  1.7861823e-002 
 5.4375148e-001  1.8749986e-002 -7.7969320e-002 -1.5819455e-003  7.7985369e-002  1.5309296e-002  1.5309296e-002  1.8350154e-002 
 5.5625153e-001  1.8749986e-002 -7.4971803e-002 -2.3129636e-003  7.5007476e-002  1.5978429e-002  1.5978429e-002  1.8791489e-002 
 5.6875157e-001  1.8749986e-002 -7.1104348e-002 -3.0236242e-003  7.1168609e-002  1.6638217e-002  1.6638217e-002  1.9170703e-002 
 5.8125162e-001  1.8749986e-002 -6.6418462e-002 -3.6920898e-003  6.6521004e-002  1.7262660e-002  1.7262660e-002  1.9475183e-002 
 5.9375167e-001  1.8749986e-002 -6.0986511e-002 -4.2966269e-003  6.1137676e-002  1.7825574e-002  1.7825574e-002  1.9694481e-002 
 6.0625172e-001  1.8749986e-002 -5.4901812e-002 -4.8160874e-003  5.5112645e-002  1.8302003e-002  1.8302003e-002  1.9820705e-002 
 6.1875176e-001  1.8749986e-002 -4.8277352e-002 -5.2309688e-003  4.8559919e-002  1.8669669e-002  1.8669669e-002  1.9848701e-002 
 6.3125181e-001  1.8749986e-002 -4.1243646e-002 -5.5244500e-003  4.1611992e-002  1.8910347e-002  1.8910347e-002  1.9776126e-002 
 6.4375186e-001  1.8749986e-002 -3.3945680e-002 -5.6836163e-003  3.4418203e-002  1.9011145e-002  1.9011145e-002  1.9603452e-002 
 6.5625191e-001  1.8749986e-002 -2.6538894e-002 -5.7004723e-003  2.7144212e-002  1.8965432e-002  1.8965432e-002  1.9333836e-002 
 6.6875196e-001  1.8749986e-002 -1.9184317e-002 -5.5728923e-003  1.9977367e-002  1.8773422e-002  1.8773422e-002  1.8972969e-002 
 6.8125200e-001  1.8749986e-002 -1.2042939e-002 -5.3050811e-003  1.3159645e-002  1.8442221e-002  1.8442221e-002  1.8528810e-002 
 6.9375205e-001  1.8749986e-002 -5.2696513e-003 -4.9078469e-003  7.2011240e-003  1.7985415e-002  1.7985415e-002  1.8011343e-002 
 7.0625210e-001  1.8749986e-002  9.9304249e-004 -4.3983562e-003  4.5090653e-003  1.7422037e-002  1.7422037e-002  1.7432204e-002 
 7.1875215e-001  1.8749986e-002  6.6206069e-003 -3.7995994e-003  7.6334388e-003  1.6775338e-002  1.6775338e-002  1.6804473e-002 
 7.3125219e-001  1.8749986e-002  1.1512661e-002 -3.1385666e-003  1.1932811e-002  1.6071185e-002  1.6071185e-002  1.6142381e-002 
 7.4375224e-001  1.8749986e-002  1.5597554e-002 -2.4442608e-003  1.5787911e-002  1.5336121e-002  1.5336121e-002  1.5460749e-002 
 7.5625229e-001  1.8749986e-002  1.8834878e-002 -1.7460191e-003  1.8915635e-002  1.4595518e-002  1.4595518e-002  1.4774418e-002 
 7.6875234e-001  1.8749986e-002  2.1216102e-002 -1.0716914e-003  2.1243151e-002  1.3872079e-002  1.3872079e-002  1.4097715e-002 
 7.8125238e-001  1.8749986e-002  2.2763496e-002 -4.4615153e-004  2.2767868e-002  1.3184942e-002  1.3184942e-002  1.3444130e-002 
 7.9375243e-001  1.8749986e-002  2.3529589e-002  1.1060292e-004  2.3529850e-002  1.2549472e-002  1.2549472e-002  1.2826299e-002 
 8.0625248e-001  1.8749986e-002  2.3587130e-002  5.9041486e-004  2.3594519e-002  1.1973192e-002  1.1973192e-002  1.2251543e-002 
 8.1875253e-001  1.8749986e-002  2.3025142e-002  9.8215812e-004  2.3046080e-002  1.1464133e-002  1.1464133e-002  1.1729694e-002 