Variables = "x","y", "Velocity_x", "Velocity_y", "Velocity_whole value", "Pressure", "Absolute pressure", "Total pressure"
Zone i=82, j=42
 0.0000000e+000  0.0000000e+000  0.0000000e+000  0.0000000e+000  0.0000000e+000  9.3195392e-003  9.3195392e-003  9.3195392e-003 
 1.2499990e-002  0.0000000e+000  0.0000000e+000  0.0000000e+000  0.0000000e+000  9.3211271e-003  9.3211271e-003  9.3211271e-003 
 3.7499964e-002  0.0000000e+000  0.0000000e+000  0.0000000e+000  0.0000000e+000  9.3243029e-003  9.3243029e-003  9.3243029e-003 
 6.2499940e-002  0.0000000e+000  0.0000000e+000  0.0000000e+000  0.0000000e+000  9.3390914e-003  9.3390914e-003  9.3390914e-003 
 8.7499917e-002  0.0000000e+000  0.0000000e+000  0.0000000e+000  0.0000000e+000  9.3638888e-003  9.3638888e-003  9.3638888e-003 
 1.1249990e-001  0.0000000e+000  0.0000000e+000  0.0000000e+000  0.0000000e+000  9.3934750e-003  9.3934750e-003  9.3934750e-003 
 1.3749990e-001  0.0000000e+000  0.0000000e+000  0.0000000e+000  0.0000000e+000  9.4231926e-003  9.4231926e-003  9.4231926e-003 
 1.6249985e-001  0.0000000e+000  0.0000000e+000  0.0000000e+000  0.0000000e+000  9.4484733e-003  9.4484733e-003  9.4484733e-003 
 1.8749979e-001  0.0000000e+000  0.0000000e+000  0.0000000e+000  0.0000000e+000  9.4650574e-003  9.4650574e-003  9.4650574e-003 
 2.1249980e-001  0.0000000e+000  0.0000000e+000  0.0000000e+000  0.0000000e+000  9.4694337e-003  9.4694337e-003  9.4694337e-003 
 2.3749980e-001  0.0000000e+000  0.0000000e+000  0.0000000e+000  0.0000000e+000  9.4592096e-003  9.4592096e-003  9.4592096e-003 
 2.6249984e-001  0.0000000e+000  0.0000000e+000  0.0000000e+000  0.0000000e+000  9.4333589e-003  9.4333589e-003  9.4333589e-003 
 2.8749996e-001  0.0000000e+000  0.0000000e+000  0.0000000e+000  0.0000000e+000  9.3922867e-003  9.3922867e-003  9.3922867e-003 
 3.1250000e-001  0.0000000e+000  0.0000000e+000  0.0000000e+000  0.0000000e+000  9.3377465e-003  9.3377465e-003  9.3377465e-003 
 3.3750004e-001  0.0000000e+000  0.0000000e+000  0.0000000e+000  0.0000000e+000  9.2725269e-003  9.2725269e-003  9.2725269e-003 
 3.6250016e-001  0.0000000e+000  0.0000000e+000  0.0000000e+000  0.0000000e+000  9.2000971e-003  9.2000971e-003  9.2000971e-003 
 3.8750026e-001  0.0000000e+000  0.0000000e+000  0.0000000e+000  0.0000000e+000  9.1241980e-003  9.1241980e-003  9.1241980e-003 
 4.1250035e-001  0.0000000e+000  0.0000000e+000  0.0000000e+000  0.0000000e+000  9.0484433e-003  9.0484433e-003  9.0484433e-003 
 4.3750045e-001  0.0000000e+000  0.0000000e+000  0.0000000e+000  0.0000000e+000  8.9760143e-003  8.9760143e-003  8.9760143e-003 
 4.6250054e-001  0.0000000e+000  0.0000000e+000  0.0000000e+000  0.0000000e+000  8.9094546e-003  8.9094546e-003  8.9094546e-003 
 4.8750067e-001  0.0000000e+000  0.0000000e+000  0.0000000e+000  0.0000000e+000  8.8505596e-003  8.8505596e-003  8.8505596e-003 
 5.1250076e-001  0.0000000e+000  0.0000000e+000  0.0000000e+000  0.0000000e+000  8.8003939e-003  8.8003939e-003  8.8003939e-003 
 5.3750086e-001  0.0000000e+000  0.0000000e+000  0.0000000e+000  0.0000000e+000  8.7593189e-003  8.7593189e-003  8.7593189e-003 
 5.6250095e-001  0.0000000e+000  0.0000000e+000  0.0000000e+000  0.0000000e+000  8.7271249e-003  8.7271249e-003  8.7271249e-003 
 5.8750105e-001  0.0000000e+000  0.0000000e+000  0.0000000e+000  0.0000000e+000  8.7031545e-003  8.7031545e-003  8.7031545e-003 
 6.1250114e-001  0.0000000e+000  0.0000000e+000  0.0000000e+000  0.0000000e+000  8.6864065e-003  8.6864065e-003  8.6864065e-003 
 6.3750124e-001  0.0000000e+000  0.0000000e+000  0.0000000e+000  0.0000000e+000  8.6756079e-003  8.6756079e-003  8.6756079e-003 
 6.6250134e-001  0.0000000e+000  0.0000000e+000  0.0000000e+000  0.0000000e+000  8.6692143e-003  8.6692143e-003  8.6692143e-003 
 6.8750143e-001  0.0000000e+000  0.0000000e+000  0.0000000e+000  0.0000000e+000  8.6653000e-003  8.6653000e-003  8.6653000e-003 
 7.1250153e-001  0.0000000e+000  0.0000000e+000  0.0000000e+000  0.0000000e+000  8.6613977e-003  8.6613977e-003  8.6613977e-003 
 7.3750162e-001  0.0000000e+000  0.0000000e+000  0.0000000e+000  0.0000000e+000  8.6538959e-003  8.6538959e-003  8.6538959e-003 
 7.6250178e-001  0.0000000e+000  0.0000000e+000  0.0000000e+000  0.0000000e+000  8.6385794e-003  8.6385794e-003  8.6385794e-003 
 7.8750187e-001  0.0000000e+000  0.0000000e+000  0.0000000e+000  0.0000000e+000  8.6097959e-003  8.6097959e-003  8.6097959e-003 
 8.1250197e-001  0.0000000e+000  0.0000000e+000  0.0000000e+000  0.0000000e+000  8.5610515e-003  8.5610515e-003  8.5610515e-003 
 8.3750206e-001  0.0000000e+000  0.0000000e+000  0.0000000e+000  0.0000000e+000  8.4856423e-003  8.4856423e-003  8.4856423e-003 
 8.6250210e-001  0.0000000e+000  0.0000000e+000  0.0000000e+000  0.0000000e+000  8.3774552e-003  8.3774552e-003  8.3774552e-003 
 8.8750213e-001  0.0000000e+000  0.0000000e+000  0.0000000e+000  0.0000000e+000  8.2314936e-003  8.2314936e-003  8.2314936e-003 
 9.1250223e-001  0.0000000e+000  0.0000000e+000  0.0000000e+000  0.0000000e+000  8.0436366e-003  8.0436366e-003  8.0436366e-003 
 9.3750232e-001  0.0000000e+000  0.0000000e+000  0.0000000e+000  0.0000000e+000  7.8094122e-003  7.8094122e-003  7.8094122e-003 
 9.6250248e-001  0.0000000e+000  0.0000000e+000  0.0000000e+000  0.0000000e+000  7.5227898e-003  7.5227898e-003  7.5227898e-003 
 9.8750275e-001  0.0000000e+000  0.0000000e+000  0.0000000e+000  0.0000000e+000  7.1761929e-003  7.1761929e-003  7.1761929e-003 
 1.0125029e+000  0.0000000e+000  0.0000000e+000  0.0000000e+000  0.0000000e+000  6.7473212e-003  6.7473212e-003  6.7473212e-003 
 1.0375030e+000  0.0000000e+000  0.0000000e+000  0.0000000e+000  0.0000000e+000  6.2097749e-003  6.2097749e-003  6.2097749e-003 
 1.0625031e+000  0.0000000e+000  0.0000000e+000  0.0000000e+000  0.0000000e+000  5.5528632e-003  5.5528632e-003  5.5528632e-003 
 1.0875030e+000  0.0000000e+000  0.0000000e+000  0.0000000e+000  0.0000000e+000  4.7460441e-003  4.7460441e-003  4.7460441e-003 
 1.1125031e+000  0.0000000e+000  0.0000000e+000  0.0000000e+000  0.0000000e+000  3.7619143e-003  3.7619143e-003  3.7619143e-003 
 1.1375029e+000  0.0000000e+000  0.0000000e+000  0.0000000e+000  0.0000000e+000  2.5774851e-003  2.5774851e-003  2.5774851e-003 
 1.1625030e+000  0.0000000e+000  0.0000000e+000  0.0000000e+000  0.0000000e+000  1.1784817e-003  1.1784817e-003  1.1784817e-003 
 1.1875031e+000  0.0000000e+000  0.0000000e+000  0.0000000e+000  0.0000000e+000 -4.3291107e-004 -4.3291107e-004 -4.3291107e-004 
 1.2125030e+000  0.0000000e+000  0.0000000e+000  0.0000000e+000  0.0000000e+000 -2.2264207e-003 -2.2264207e-003 -2.2264207e-003 
 1.2375035e+000  0.0000000e+000  0.0000000e+000  0.0000000e+000  0.0000000e+000 -4.1311504e-003 -4.1311504e-003 -4.1311504e-003 
 1.2625041e+000  0.0000000e+000  0.0000000e+000  0.0000000e+000  0.0000000e+000 -6.0279896e-003 -6.0279896e-003 -6.0279896e-003 
 1.2875040e+000  0.0000000e+000  0.0000000e+000  0.0000000e+000  0.0000000e+000 -7.7546514e-003 -7.7546514e-003 -7.7546514e-003 
 1.3125041e+000  0.0000000e+000  0.0000000e+000  0.0000000e+000  0.0000000e+000 -9.1228727e-003 -9.1228727e-003 -9.1228727e-003 
 1.3375039e+000  0.0000000e+000  0.0000000e+000  0.0000000e+000  0.0000000e+000 -9.9406913e-003 -9.9406913e-003 -9.9406913e-003 
 1.3625040e+000  0.0000000e+000  0.0000000e+000  0.0000000e+000  0.0000000e+000 -1.0032798e-002 -1.0032798e-002 -1.0032798e-002 
 1.3875041e+000  0.0000000e+000  0.0000000e+000  0.0000000e+000  0.0000000e+000 -9.2556160e-003 -9.2556160e-003 -9.2556160e-003 
 1.4125040e+000  0.0000000e+000  0.0000000e+000  0.0000000e+000  0.0000000e+000 -7.5075948e-003 -7.5075948e-003 -7.5075948e-003 
 1.4375041e+000  0.0000000e+000  0.0000000e+000  0.0000000e+000  0.0000000e+000 -4.7321301e-003 -4.7321301e-003 -4.7321301e-003 
 1.4625039e+000  0.0000000e+000  0.0000000e+000  0.0000000e+000  0.0000000e+000 -9.3855022e-004 -9.3855022e-004 -9.3855022e-004 
 1.4875045e+000  0.0000000e+000  0.0000000e+000  0.0000000e+000  0.0000000e+000  3.7022743e-003  3.7022743e-003  3.7022743e-003 
 1.5125051e+000  0.0000000e+000  0.0000000e+000  0.0000000e+000  0.0000000e+000  9.0852529e-003  9.0852529e-003  9.0852529e-003 
 1.5375049e+000  0.0000000e+000  0.0000000e+000  0.0000000e+000  0.0000000e+000  1.5181743e-002  1.5181743e-002  1.5181743e-002 
 1.5625050e+000  0.0000000e+000  0.0000000e+000  0.0000000e+000  0.0000000e+000  2.1356795e-002  2.1356795e-002  2.1356795e-002 
 1.5875051e+000  0.0000000e+000  0.0000000e+000  0.0000000e+000  0.0000000e+000  2.7256742e-002  2.7256742e-002  2.7256742e-002 
 1.6125050e+000  0.0000000e+000  0.0000000e+000  0.0000000e+000  0.0000000e+000  3.2413706e-002  3.2413706e-002  3.2413706e-002 
 1.6375051e+000  0.0000000e+000  0.0000000e+000  0.0000000e+000  0.0000000e+000  3.6375567e-002  3.6375567e-002  3.6375567e-002 
 1.6625049e+000  0.0000000e+000  0.0000000e+000  0.0000000e+000  0.0000000e+000  3.8805198e-002  3.8805198e-002  3.8805198e-002 
 1.6875050e+000  0.0000000e+000  0.0000000e+000  0.0000000e+000  0.0000000e+000  3.9581772e-002  3.9581772e-002  3.9581772e-002 
 1.7125051e+000  0.0000000e+000  0.0000000e+000  0.0000000e+000  0.0000000e+000  3.8856082e-002  3.8856082e-002  3.8856082e-002 
 1.7375050e+000  0.0000000e+000  0.0000000e+000  0.0000000e+000  0.0000000e+000  3.6934085e-002  3.6934085e-002  3.6934085e-002 
 1.7625055e+000  0.0000000e+000  0.0000000e+000  0.0000000e+000  0.0000000e+000  3.4429040e-002  3.4429040e-002  3.4429040e-002 
 1.7875061e+000  0.0000000e+000  0.0000000e+000  0.0000000e+000  0.0000000e+000  3.1795073e-002  3.1795073e-002  3.1795073e-002 
 1.8125060e+000  0.0000000e+000  0.0000000e+000  0.0000000e+000  0.0000000e+000  2.9430632e-002  2.9430632e-002  2.9430632e-002 
 1.8375061e+000  0.0000000e+000  0.0000000e+000  0.0000000e+000  0.0000000e+000  2.7606586e-002  2.7606586e-002  2.7606586e-002 
 1.8625059e+000  0.0000000e+000  0.0000000e+000  0.0000000e+000  0.0000000e+000  2.6323766e-002  2.6323766e-002  2.6323766e-002 
 1.8875060e+000  0.0000000e+000  0.0000000e+000  0.0000000e+000  0.0000000e+000  2.5534535e-002  2.5534535e-002  2.5534535e-002 
 1.9125061e+000  0.0000000e+000  0.0000000e+000  0.0000000e+000  0.0000000e+000  2.5123974e-002  2.5123974e-002  2.5123974e-002 
 1.9375060e+000  0.0000000e+000  0.0000000e+000  0.0000000e+000  0.0000000e+000  2.4972793e-002  2.4972793e-002  2.4972793e-002 
 1.9625061e+000  0.0000000e+000  0.0000000e+000  0.0000000e+000  0.0000000e+000  2.4999114e-002  2.4999114e-002  2.4999114e-002 
 1.9875031e+000  0.0000000e+000  0.0000000e+000  0.0000000e+000  0.0000000e+000  2.5145100e-002  2.5145100e-002  2.5145100e-002 
 2.0000000e+000  0.0000000e+000  0.0000000e+000  0.0000000e+000  0.0000000e+000  2.5218084e-002  2.5218084e-002  2.5218084e-002 
 0.0000000e+000  1.2499990e-002  0.0000000e+000  0.0000000e+000  0.0000000e+000  9.3180621e-003  9.3180621e-003  9.3180621e-003 
 1.2499990e-002  1.2499990e-002 -2.7401571e-005  2.7732709e-005  3.8986527e-005  9.3195392e-003  9.3195392e-003  9.3195401e-003 
 3.7499964e-002  1.2499990e-002 -9.6111500e-005  4.2074535e-005  1.0491753e-004  9.3224933e-003  9.3224933e-003  9.3224989e-003 
 6.2499940e-002  1.2499990e-002 -1.4545943e-004  2.9178025e-005  1.4835701e-004  9.3358699e-003  9.3358699e-003  9.3358811e-003 
 8.7499917e-002  1.2499990e-002 -1.1186027e-004  8.2360784e-006  1.1216307e-004  9.3579786e-003  9.3579786e-003  9.3579851e-003 
 1.1249990e-001  1.2499990e-002  3.6157737e-005 -1.5841919e-005  3.9475919e-005  9.3842270e-003  9.3842270e-003  9.3842279e-003 
 1.3749990e-001  1.2499990e-002  3.0738988e-004 -4.0380830e-005  3.1003088e-004  9.4104754e-003  9.4104754e-003  9.4105238e-003 
 1.6249985e-001  1.2499990e-002  6.9748081e-004 -6.2812447e-005  7.0030341e-004  9.4325421e-003  9.4325421e-003  9.4327871e-003 
 1.8749979e-001  1.2499990e-002  1.1905589e-003 -8.0903781e-005  1.1933047e-003  9.4464812e-003  9.4464812e-003  9.4471928e-003 
 2.1249980e-001  1.2499990e-002  1.7610402e-003 -9.2823415e-005  1.7634848e-003  9.4490116e-003  9.4490116e-003  9.4505670e-003 
 2.3749980e-001  1.2499990e-002  2.3764002e-003 -9.7418968e-005  2.3783962e-003  9.4378842e-003  9.4378842e-003  9.4407126e-003 
 2.6249984e-001  1.2499990e-002  3.0006303e-003 -9.4416580e-005  3.0021153e-003  9.4121331e-003  9.4121331e-003  9.4166398e-003 
 2.8749996e-001  1.2499990e-002  3.5978965e-003 -8.4451327e-005  3.5988875e-003  9.3721468e-003  9.3721468e-003  9.3786232e-003 
 3.1250000e-001  1.2499990e-002  4.1359155e-003 -6.8892718e-005  4.1364892e-003  9.3195839e-003  9.3195839e-003  9.3281390e-003 
 3.3750004e-001  1.2499990e-002  4.5886394e-003 -4.9624075e-005  4.5889076e-003  9.2570875e-003  9.2570875e-003  9.2676161e-003 
 3.6250016e-001  1.2499990e-002  4.9378960e-003 -2.8692937e-005  4.9379794e-003  9.1879349e-003  9.1879349e-003  9.2001269e-003 
 3.8750026e-001  1.2499990e-002  5.1740422e-003 -8.0280570e-006  5.1740482e-003  9.1156466e-003  9.1156466e-003  9.1290316e-003 
 4.1250035e-001  1.2499990e-002  5.2957064e-003  1.0767266e-005  5.2957176e-003  9.0436116e-003  9.0436116e-003  9.0576336e-003 
 4.3750045e-001  1.2499990e-002  5.3087706e-003  2.6542424e-005  5.3088367e-003  8.9747952e-003  8.9747952e-003  8.9888871e-003 
 4.6250054e-001  1.2499990e-002  5.2249404e-003  3.8634076e-005  5.2250833e-003  8.9115463e-003  8.9115463e-003  8.9251967e-003 
 4.8750067e-001  1.2499990e-002  5.0600972e-003  4.6827121e-005  5.0603137e-003  8.8555049e-003  8.8555049e-003  8.8683087e-003 
 5.1250076e-001  1.2499990e-002  4.8327404e-003  5.1254432e-005  4.8330124e-003  8.8076089e-003  8.8076089e-003  8.8192876e-003 
 5.3750086e-001  1.2499990e-002  4.5625865e-003  5.2261439e-005  4.5628860e-003  8.7681413e-003  8.7681413e-003  8.7785516e-003 
 5.6250095e-001  1.2499990e-002  4.2695571e-003  5.0286169e-005  4.2698532e-003  8.7368442e-003  8.7368442e-003  8.7459600e-003 
 5.8750105e-001  1.2499990e-002  3.9731599e-003  4.5717625e-005  3.9734230e-003  8.7130358e-003  8.7130358e-003  8.7209297e-003 
 6.1250114e-001  1.2499990e-002  3.6923501e-003  3.8780548e-005  3.6925538e-003  8.6957142e-003  8.6957142e-003  8.7025315e-003 
 6.3750124e-001  1.2499990e-002  3.4457762e-003  2.9409179e-005  3.4459017e-003  8.6836191e-003  8.6836191e-003  8.6895563e-003 
 6.6250134e-001  1.2499990e-002  3.2523056e-003  1.7225490e-005  3.2523512e-003  8.6752325e-003  8.6752325e-003  8.6805215e-003 
 6.8750143e-001  1.2499990e-002  3.1314797e-003  1.6069329e-006  3.1314802e-003  8.6686835e-003  8.6686835e-003  8.6735869e-003 
 7.1250153e-001  1.2499990e-002  3.1035491e-003 -1.8084851e-005  3.1036017e-003  8.6615840e-003  8.6615840e-003  8.6663999e-003 
 7.3750162e-001  1.2499990e-002  3.1876490e-003 -4.2980901e-005  3.1879386e-003  8.6506242e-003  8.6506242e-003  8.6557055e-003 
 7.6250178e-001  1.2499990e-002  3.3989130e-003 -7.1738243e-005  3.3996699e-003  8.6317463e-003  8.6317463e-003  8.6375251e-003 
 7.8750187e-001  1.2499990e-002  3.7438283e-003 -1.0241073e-004  3.7452288e-003  8.5996846e-003  8.5996846e-003  8.6066984e-003 
 8.1250197e-001  1.2499990e-002  4.2143310e-003 -1.3164243e-004  4.2163865e-003  8.5483696e-003  8.5483696e-003  8.5572582e-003 
 8.3750206e-001  1.2499990e-002  4.7844877e-003 -1.5566923e-004  4.7870195e-003  8.4715197e-003  8.4715197e-003  8.4829777e-003 
 8.6250210e-001  1.2499990e-002  5.4118005e-003 -1.7220063e-004  5.4145395e-003  8.3634090e-003  8.3634090e-003  8.3780680e-003 
 8.8750213e-001  1.2499990e-002  6.0443142e-003 -1.8219587e-004  6.0470598e-003  8.2193809e-003  8.2193809e-003  8.2376646e-003 
 9.1250223e-001  1.2499990e-002  6.6309050e-003 -1.9021193e-004  6.6336328e-003  8.0356225e-003  8.0356225e-003  8.0576250e-003 
 9.3750232e-001  1.2499990e-002  7.1288096e-003 -2.0239277e-004  7.1316822e-003  7.8080026e-003  7.8080026e-003  7.8334333e-003 
 9.6250248e-001  1.2499990e-002  7.5036814e-003 -2.2092814e-004  7.5069331e-003  7.5306422e-003  7.5306422e-003  7.5588194e-003 
 9.8750275e-001  1.2499990e-002  7.7268644e-003 -2.3848236e-004  7.7305436e-003  7.1950359e-003  7.1950359e-003  7.2249165e-003 
 1.0125029e+000  1.2499990e-002  7.7501652e-003 -2.7465346e-004  7.7550304e-003  6.7828223e-003  6.7828223e-003  6.8128924e-003 
 1.0375030e+000  1.2499990e-002  7.4748220e-003 -3.4261885e-004  7.4826702e-003  6.2715956e-003  6.2715956e-003  6.2995907e-003 
 1.0625031e+000  1.2499990e-002  6.7733219e-003 -3.9248340e-004  6.7846836e-003  5.6455848e-003  5.6455848e-003  5.6686006e-003 
 1.0875030e+000  1.2499990e-002  5.4892390e-003 -4.2650566e-004  5.5057835e-003  4.8778495e-003  4.8778495e-003  4.8930063e-003 
 1.1125031e+000  1.2499990e-002  3.4235038e-003 -4.4304150e-004  3.4520521e-003  3.9428044e-003  3.9428044e-003  3.9487625e-003 
 1.1375029e+000  1.2499990e-002  3.5793064e-004 -4.3409414e-004  5.6262960e-004  2.8183064e-003  2.8183064e-003  2.8184648e-003 
 1.1625030e+000  1.2499990e-002 -3.9258688e-003 -3.8759396e-004  3.9449558e-003  1.4898428e-003  1.4898428e-003  1.4976241e-003 
 1.1875031e+000  1.2499990e-002 -9.6228058e-003 -2.8368662e-004  9.6269865e-003 -4.3205211e-005 -4.3205211e-005  3.1342231e-006 
 1.2125030e+000  1.2499990e-002 -1.6880933e-002 -8.2536710e-005  1.6881134e-002 -1.7588295e-003 -1.7588295e-003 -1.6163430e-003 
 1.2375035e+000  1.2499990e-002 -2.5785090e-002  2.7899264e-004  2.5786599e-002 -3.6011511e-003 -3.6011511e-003 -3.2686766e-003 
 1.2625041e+000  1.2499990e-002 -3.6338411e-002  8.6444145e-004  3.6348693e-002 -5.4695271e-003 -5.4695271e-003 -4.8089135e-003 
 1.2875040e+000  1.2499990e-002 -4.8433345e-002  1.6959575e-003  4.8463028e-002 -7.2164130e-003 -7.2164130e-003 -6.0420805e-003 
 1.3125041e+000  1.2499990e-002 -6.1815534e-002  2.7239174e-003  6.1875518e-002 -8.6586764e-003 -8.6586764e-003 -6.7443866e-003 
 1.3375039e+000  1.2499990e-002 -7.6058246e-002  3.8321465e-003  7.6154724e-002 -9.5989620e-003 -9.5989620e-003 -6.6991909e-003 
 1.3625040e+000  1.2499990e-002 -9.0568505e-002  4.8698080e-003  9.0699337e-002 -9.8494003e-003 -9.8494003e-003 -5.7362155e-003 
 1.3875041e+000  1.2499990e-002 -1.0462344e-001  5.6877886e-003  1.0477794e-001 -9.2507852e-003 -9.2507852e-003 -3.7615772e-003 
 1.4125040e+000  1.2499990e-002 -1.1742295e-001  6.1687077e-003  1.1758488e-001 -7.6863756e-003 -7.6863756e-003 -7.7327417e-004 
 1.4375041e+000  1.2499990e-002 -1.2814255e-001  6.2386589e-003  1.2829432e-001 -5.0916667e-003 -5.0916667e-003  3.1380504e-003 
 1.4625039e+000  1.2499990e-002 -1.3599305e-001  5.7937149e-003  1.3611640e-001 -1.4702094e-003 -1.4702094e-003  7.7936286e-003 
 1.4875045e+000  1.2499990e-002 -1.4032349e-001  4.6634395e-003  1.4040096e-001  3.0700103e-003  3.0700103e-003  1.2926225e-002 
 1.5125051e+000  1.2499990e-002 -1.4063466e-001  3.2218636e-003  1.4067155e-001  8.4083034e-003  8.4083034e-003  1.8302547e-002 
 1.5375049e+000  1.2499990e-002 -1.3635696e-001  1.9327586e-003  1.3637066e-001  1.4383690e-002  1.4383690e-002  2.3682170e-002 
 1.5625050e+000  1.2499990e-002 -1.2721618e-001  1.9858140e-004  1.2721632e-001  2.0510567e-002  2.0510567e-002  2.8602565e-002 
 1.5875051e+000  1.2499990e-002 -1.1361697e-001 -1.5768665e-003  1.1362791e-001  2.6399950e-002  2.6399950e-002  3.2855600e-002 
 1.6125050e+000  1.2499990e-002 -9.6028097e-002 -3.1818794e-003  9.6080795e-002  3.1576212e-002  3.1576212e-002  3.6191974e-002 
 1.6375051e+000  1.2499990e-002 -7.5371534e-002 -4.3949308e-003  7.5499557e-002  3.5581153e-002  3.5581153e-002  3.8431246e-002 
 1.6625049e+000  1.2499990e-002 -5.3004932e-002 -5.0065857e-003  5.3240854e-002  3.8069770e-002  3.8069770e-002  3.9487064e-002 
 1.6875050e+000  1.2499990e-002 -3.0626778e-002 -4.8551112e-003  3.1009218e-002  3.8910616e-002  3.8910616e-002  3.9391402e-002 
 1.7125051e+000  1.2499990e-002 -1.0051857e-002 -3.9086184e-003  1.0785041e-002  3.8243301e-002  3.8243301e-002  3.8301460e-002 
 1.7375050e+000  1.2499990e-002  6.8627172e-003 -2.4446498e-003  7.2851358e-003  3.6394987e-002  3.6394987e-002  3.6421522e-002 
 1.7625055e+000  1.2499990e-002  1.8800514e-002 -6.2563259e-004  1.8810920e-002  3.3960860e-002  3.3960860e-002  3.4137785e-002 
 1.7875061e+000  1.2499990e-002  2.5336256e-002  9.7448844e-004  2.5354991e-002  3.1422216e-002  3.1422216e-002  3.1743653e-002 
 1.8125060e+000  1.2499990e-002  2.6815802e-002  1.9754553e-003  2.6888467e-002  2.9181967e-002  2.9181967e-002  2.9543461e-002 
 1.8375061e+000  1.2499990e-002  2.4505688e-002  2.3964569e-003  2.4622586e-002  2.7475858e-002  2.7475858e-002  2.7778994e-002 
 1.8625059e+000  1.2499990e-002  2.0028230e-002  2.2347583e-003  2.0152522e-002  2.6305640e-002  2.6305640e-002  2.6508702e-002 
 1.8875060e+000  1.2499990e-002  1.4776711e-002  1.7873626e-003  1.4884417e-002  2.5595553e-002  2.5595553e-002  2.5706327e-002 
 1.9125061e+000  1.2499990e-002  9.7004352e-003  1.3121362e-003  9.7887767e-003  2.5223728e-002  2.5223728e-002  2.5271639e-002 
 1.9375060e+000  1.2499990e-002  5.2651498e-003  9.2595333e-004  5.3459508e-003  2.5076240e-002  2.5076240e-002  2.5090531e-002 
 1.9625061e+000  1.2499990e-002  1.7653009e-003  5.5172225e-004  1.8495093e-003  2.5085047e-002  2.5085047e-002  2.5086757e-002 
 1.9875031e+000  1.2499990e-002 -3.9334886e-005 -8.5531668e-005  9.4142975e-005  2.5226520e-002  2.5226520e-002  2.5226524e-002 
 2.0000000e+000  1.2499990e-002  0.0000000e+000  0.0000000e+000  0.0000000e+000  2.5297245e-002  2.5297245e-002  2.5297245e-002 
 0.0000000e+000  3.7499964e-002  0.0000000e+000  0.0000000e+000  0.0000000e+000  9.3151070e-003  9.3151070e-003  9.3151070e-003 
 1.2499990e-002  3.7499964e-002 -3.9697501e-005  9.4193332e-005  1.0221681e-004  9.3163634e-003  9.3163634e-003  9.3163690e-003 
 3.7499964e-002  3.7499964e-002 -1.1568631e-004  1.1234992e-004  1.6126322e-004  9.3188751e-003  9.3188751e-003  9.3188882e-003 
 6.2499940e-002  3.7499964e-002 -9.8499419e-005 -2.6716014e-006  9.8535646e-005  9.3294280e-003  9.3294280e-003  9.3294326e-003 
 8.7499917e-002  3.7499964e-002  1.2170044e-004 -1.9015958e-004  2.2576905e-004  9.3461592e-003  9.3461592e-003  9.3461843e-003 
 1.1249990e-001  3.7499964e-002  6.0675730e-004 -4.1208538e-004  7.3346356e-004  9.3657309e-003  9.3657309e-003  9.3660001e-003 
 1.3749990e-001  3.7499964e-002  1.3767520e-003 -6.3933869e-004  1.5179592e-003  9.3850410e-003  9.3850410e-003  9.3861930e-003 
 1.6249985e-001  3.7499964e-002  2.4203474e-003 -8.4771600e-004  2.5645085e-003  9.4006797e-003  9.4006797e-003  9.4039682e-003 
 1.8749979e-001  3.7499964e-002  3.6992801e-003 -1.0169707e-003  3.8365221e-003  9.4093289e-003  9.4093289e-003  9.4166882e-003 
 2.1249980e-001  3.7499964e-002  5.1538763e-003 -1.1315410e-003  5.2766302e-003  9.4081676e-003  9.4081676e-003  9.4220890e-003 
 2.3749980e-001  3.7499964e-002  6.7098276e-003 -1.1817506e-003  6.8130991e-003  9.3952334e-003  9.3952334e-003  9.4184428e-003 
 2.6249984e-001  3.7499964e-002  8.2857376e-003 -1.1645545e-003  8.3671762e-003  9.3696816e-003  9.3696816e-003  9.4046863e-003 
 2.8749996e-001  3.7499964e-002  9.8006865e-003 -1.0834142e-003  9.8603871e-003  9.3318671e-003  9.3318671e-003  9.3804803e-003 
 3.1250000e-001  3.7499964e-002  1.1180968e-002 -9.4731181e-004  1.1221027e-002  9.2832595e-003  9.2832595e-003  9.3462151e-003 
 3.3750004e-001  3.7499964e-002  1.2365451e-002 -7.6926820e-004  1.2389356e-002  9.2262095e-003  9.2262095e-003  9.3029579e-003 
 3.6250016e-001  3.7499964e-002  1.3309105e-002 -5.6449376e-004  1.3321071e-002  9.1636106e-003  9.1636106e-003  9.2523359e-003 
 3.8750026e-001  3.7499964e-002  1.3984732e-002 -3.4861287e-004  1.3989077e-002  9.0985447e-003  9.0985447e-003  9.1963923e-003 
 4.1250035e-001  3.7499964e-002  1.4383040e-002 -1.3619861e-004  1.4383685e-002  9.0339491e-003  9.0339491e-003  9.1373939e-003 
 4.3750045e-001  3.7499964e-002  1.4511302e-002  6.0310937e-005  1.4511428e-002  8.9723580e-003  8.9723580e-003  9.0776486e-003 
 4.6250054e-001  3.7499964e-002  1.4391053e-002  2.3124432e-004  1.4392911e-002  8.9157308e-003  8.9157308e-003  9.0193087e-003 
 4.8750067e-001  3.7499964e-002  1.4055263e-002  3.6988879e-004  1.4060129e-002  8.8653956e-003  8.8653956e-003  8.9642396e-003 
 5.1250076e-001  3.7499964e-002  1.3545114e-002  4.7230438e-004  1.3553346e-002  8.8220397e-003  8.8220397e-003  8.9138867e-003 
 5.3750086e-001  3.7499964e-002  1.2907051e-002  5.3681398e-004  1.2918209e-002  8.7857870e-003  8.7857870e-003  8.8692270e-003 
 5.6250095e-001  3.7499964e-002  1.2190300e-002  5.6333555e-004  1.2203310e-002  8.7562809e-003  8.7562809e-003  8.8307410e-003 
 5.8750105e-001  3.7499964e-002  1.1445029e-002  5.5259705e-004  1.1458362e-002  8.7327966e-003  8.7327966e-003  8.7984437e-003 
 6.1250114e-001  3.7499964e-002  1.0721308e-002  5.0535687e-004  1.0733211e-002  8.7143285e-003  8.7143285e-003  8.7719299e-003 
 6.3750124e-001  3.7499964e-002  1.0068786e-002  4.2180042e-004  1.0077617e-002  8.6996397e-003  8.6996397e-003  8.7504191e-003 
 6.6250134e-001  3.7499964e-002  9.5367357e-003  3.0143029e-004  9.5414985e-003  8.6872671e-003  8.6872671e-003  8.7327873e-003 
 6.8750143e-001  3.7499964e-002  9.1738459e-003  1.4365141e-004  9.1749709e-003  8.6754458e-003  8.6754458e-003  8.7175360e-003 
 7.1250153e-001  3.7499964e-002  9.0264976e-003 -5.0560579e-005  9.0266392e-003  8.6619537e-003  8.6619537e-003  8.7026935e-003 
 7.3750162e-001  3.7499964e-002  9.1351932e-003 -2.7650254e-004  9.1393767e-003  8.6440798e-003  8.6440798e-003  8.6858440e-003 
 7.6250178e-001  3.7499964e-002  9.5268348e-003 -5.2108511e-004  9.5410747e-003  8.6180810e-003  8.6180810e-003  8.6635966e-003 
 7.8750187e-001  3.7499964e-002  1.0203837e-002 -7.6224480e-004  1.0232268e-002  8.5794646e-003  8.5794646e-003  8.6318143e-003 
 8.1250197e-001  3.7499964e-002  1.1133542e-002 -9.6980314e-004  1.1175700e-002  8.5230088e-003  8.5230088e-003  8.5854568e-003 
 8.3750206e-001  3.7499964e-002  1.2241038e-002 -1.1114654e-003  1.2291394e-002  8.4432783e-003  8.4432783e-003  8.5188178e-003 
 8.6250210e-001  3.7499964e-002  1.3411066e-002 -1.1624127e-003  1.3461349e-002  8.3353212e-003  8.3353212e-003  8.4259249e-003 
 8.8750213e-001  3.7499964e-002  1.4500224e-002 -1.1136527e-003  1.4542927e-002  8.1951600e-003  8.1951600e-003  8.3009079e-003 
 9.1250223e-001  3.7499964e-002  1.5354116e-002 -9.7271398e-004  1.5384897e-002  8.0195991e-003  8.0195991e-003  8.1379469e-003 
 9.3750232e-001  3.7499964e-002  1.5818985e-002 -7.5353333e-004  1.5836922e-002  7.8051877e-003  7.8051877e-003  7.9305917e-003 
 9.6250248e-001  3.7499964e-002  1.5736757e-002 -4.5807968e-004  1.5743423e-002  7.5463490e-003  7.5463490e-003  7.6702768e-003 
 9.8750275e-001  3.7499964e-002  1.4911860e-002 -6.0610553e-005  1.4911983e-002  7.2327233e-003  7.2327233e-003  7.3439069e-003 
 1.0125029e+000  3.7499964e-002  1.3082687e-002  4.7491654e-004  1.3091304e-002  6.8538245e-003  6.8538245e-003  6.9395155e-003 
 1.0375030e+000  3.7499964e-002  9.9132732e-003  1.2078688e-003  9.9865878e-003  6.3952361e-003  6.3952361e-003  6.4451019e-003 
 1.0625031e+000  3.7499964e-002  4.9481350e-003  2.2477254e-003  5.4347320e-003  5.8310265e-003  5.8310265e-003  5.8457945e-003 
 1.0875030e+000  3.7499964e-002 -2.3737170e-003  3.6695385e-003  4.3703597e-003  5.1414580e-003  5.1414580e-003  5.1510083e-003 
 1.1125031e+000  3.7499964e-002 -1.2658551e-002  5.5343783e-003  1.3815508e-002  4.3045832e-003  4.3045832e-003  4.4000172e-003 
 1.1375029e+000  3.7499964e-002 -2.6490157e-002  7.8837229e-003  2.7638407e-002  3.2999471e-003  3.2999471e-003  3.6818879e-003 
 1.1625030e+000  3.7499964e-002 -4.4325061e-002  1.0717437e-002  4.5602351e-002  2.1125625e-003  2.1125625e-003  3.1523497e-003 
 1.1875031e+000  3.7499964e-002 -6.6347614e-002  1.3960392e-002  6.7800432e-002  7.3620433e-004  7.3620433e-004  3.0346536e-003 
 1.2125030e+000  3.7499964e-002 -9.2318147e-002  1.7436089e-002  9.3950294e-002 -8.2364911e-004 -8.2364911e-004  3.5896797e-003 
 1.2375035e+000  3.7499964e-002 -1.2148673e-001  2.0865865e-002  1.2326561e-001 -2.5411546e-003 -2.5411546e-003  5.0560506e-003 
 1.2625041e+000  3.7499964e-002 -1.5264030e-001  2.3904959e-002  1.5450083e-001 -4.3526040e-003 -4.3526040e-003  7.5826496e-003 
 1.2875040e+000  3.7499964e-002 -1.8428527e-001  2.6204452e-002  1.8613902e-001 -6.1399373e-003 -6.1399373e-003  1.1183930e-002 
 1.3125041e+000  3.7499964e-002 -2.1487722e-001  2.7469913e-002  2.1662597e-001 -7.7302842e-003 -7.7302842e-003  1.5733123e-002 
 1.3375039e+000  3.7499964e-002 -2.4300204e-001  2.7497793e-002  2.4455290e-001 -8.9155063e-003 -8.9155063e-003  2.0987554e-002 
 1.3625040e+000  3.7499964e-002 -2.6747742e-001  2.6184190e-002  2.6875600e-001 -9.4826054e-003 -9.4826054e-003  2.6632287e-002 
 1.3875041e+000  3.7499964e-002 -2.8737840e-001  2.3514716e-002  2.8833884e-001 -9.2411218e-003 -9.2411218e-003  3.2328520e-002 
 1.4125040e+000  3.7499964e-002 -3.0201933e-001  1.9547716e-002  3.0265126e-001 -8.0439374e-003 -8.0439374e-003  3.7754957e-002 
 1.4375041e+000  3.7499964e-002 -3.1093243e-001  1.4395797e-002  3.1126550e-001 -5.8107376e-003 -5.8107376e-003  4.2632367e-002 
 1.4625039e+000  3.7499964e-002 -3.1382126e-001  8.2050338e-003  3.1392851e-001 -2.5335262e-003 -2.5335262e-003  4.6742026e-002 
 1.4875045e+000  3.7499964e-002 -3.1039622e-001  1.1840085e-003  3.1039849e-001  1.8054850e-003  1.8054850e-003  4.9979094e-002 
 1.5125051e+000  3.7499964e-002 -3.0061892e-001 -6.2782210e-003  3.0068448e-001  7.0544020e-003  7.0544020e-003  5.2259978e-002 
 1.5375049e+000  3.7499964e-002 -2.8487861e-001 -1.3846366e-002  2.8521490e-001  1.2787587e-002  1.2787587e-002  5.3461358e-002 
 1.5625050e+000  3.7499964e-002 -2.6322088e-001 -2.1349564e-002  2.6408526e-001  1.8818112e-002  1.8818112e-002  5.3688630e-002 
 1.5875051e+000  3.7499964e-002 -2.3595390e-001 -2.8198870e-002  2.3763295e-001  2.4686364e-002  2.4686364e-002  5.2921072e-002 
 1.6125050e+000  3.7499964e-002 -2.0377052e-001 -3.3858787e-002  2.0656438e-001  2.9901225e-002  2.9901225e-002  5.1235646e-002 
 1.6375051e+000  3.7499964e-002 -1.6769119e-001 -3.7705880e-002  1.7187805e-001  3.3992324e-002  3.3992324e-002  4.8763357e-002 