Variables = "x","y","z", "Shear Stress_x", "Shear Stress_y", "Shear Stress_z", "Shear Stress_circ", "Skin Friction"
Zone i=1, j=42, k=2
 0.0000000e+000  0.0000000e+000  0.0000000e+000  0.0000000e+000  0.0000000e+000  0.0000000e+000  0.0000000e+000  6.3424641e-006 
 0.0000000e+000  1.2499990e-002  0.0000000e+000  2.8025969e-045  3.7655692e-041  0.0000000e+000 -2.8025969e-045  7.2221992e-006 
 0.0000000e+000  3.7499964e-002  0.0000000e+000  0.0000000e+000  0.0000000e+000  0.0000000e+000  0.0000000e+000  9.1895736e-006 
 0.0000000e+000  6.2499940e-002  0.0000000e+000  2.8025969e-045  3.7655692e-041  0.0000000e+000 -2.8025969e-045  7.4714599e-006 
 0.0000000e+000  8.7499917e-002  0.0000000e+000  0.0000000e+000  0.0000000e+000  0.0000000e+000  0.0000000e+000  1.1577958e-005 
 0.0000000e+000  1.1249990e-001  0.0000000e+000  2.8025969e-045  3.7655692e-041  0.0000000e+000 -2.8025969e-045  2.7784807e-005 
 0.0000000e+000  1.3749990e-001  0.0000000e+000  0.0000000e+000  0.0000000e+000  0.0000000e+000  0.0000000e+000  5.2548283e-005 
 0.0000000e+000  1.6249985e-001  0.0000000e+000  2.8025969e-045  3.7655692e-041  0.0000000e+000 -2.8025969e-045  8.5978820e-005 
 0.0000000e+000  1.8749979e-001  0.0000000e+000  0.0000000e+000  0.0000000e+000  0.0000000e+000  0.0000000e+000  1.2983270e-004 
 0.0000000e+000  2.1249980e-001  0.0000000e+000  2.8025969e-045  3.7655692e-041  0.0000000e+000 -2.8025969e-045  1.8701056e-004 
 0.0000000e+000  2.3749980e-001  0.0000000e+000  0.0000000e+000  0.0000000e+000  0.0000000e+000  0.0000000e+000  2.6155048e-004 
 0.0000000e+000  2.6249984e-001  0.0000000e+000  2.8025969e-045  3.7655692e-041  0.0000000e+000 -2.8025969e-045  3.5870832e-004 
 0.0000000e+000  2.8749990e-001  0.0000000e+000  0.0000000e+000  0.0000000e+000  0.0000000e+000  0.0000000e+000  4.8502148e-004 
 0.0000000e+000  3.1249988e-001  0.0000000e+000  2.8025969e-045  3.7655692e-041  0.0000000e+000 -2.8025969e-045  6.4824551e-004 
 0.0000000e+000  3.3749995e-001  0.0000000e+000  0.0000000e+000  0.0000000e+000  0.0000000e+000  0.0000000e+000  8.5701863e-004 
 0.0000000e+000  3.6250001e-001  0.0000000e+000  2.8025969e-045  3.7655692e-041  0.0000000e+000 -2.8025969e-045  1.1199570e-003 
 0.0000000e+000  3.8749999e-001  0.0000000e+000  0.0000000e+000  0.0000000e+000  0.0000000e+000  0.0000000e+000  1.4437058e-003 
 0.0000000e+000  4.1250005e-001  0.0000000e+000  2.8025969e-045  3.7655692e-041  0.0000000e+000 -2.8025969e-045  1.8292579e-003 
 0.0000000e+000  4.3750012e-001  0.0000000e+000  0.0000000e+000  0.0000000e+000  0.0000000e+000  0.0000000e+000  2.2656545e-003 
 0.0000000e+000  4.6250010e-001  0.0000000e+000  2.8025969e-045  3.7655692e-041  0.0000000e+000 -2.8025969e-045  2.7205336e-003 
 0.0000000e+000  4.8750013e-001  0.0000000e+000  0.0000000e+000  0.0000000e+000  0.0000000e+000  0.0000000e+000  3.1293889e-003 
 0.0000000e+000  5.1250017e-001  0.0000000e+000  2.8025969e-045  3.7655692e-041  0.0000000e+000 -2.8025969e-045  3.3912172e-003 
 0.0000000e+000  5.3750026e-001  0.0000000e+000  0.0000000e+000  0.0000000e+000  0.0000000e+000  0.0000000e+000  3.3564931e-003 
 0.0000000e+000  5.6250030e-001  0.0000000e+000  2.8025969e-045  3.7655692e-041  0.0000000e+000 -2.8025969e-045  2.8288611e-003 
 0.0000000e+000  5.8750033e-001  0.0000000e+000  0.0000000e+000  0.0000000e+000  0.0000000e+000  0.0000000e+000  1.6398622e-003 
 0.0000000e+000  6.1250037e-001  0.0000000e+000  2.8025969e-045  3.7655692e-041  0.0000000e+000 -2.8025969e-045  3.2011312e-004 
 0.0000000e+000  6.3750041e-001  0.0000000e+000  0.0000000e+000  0.0000000e+000  0.0000000e+000  0.0000000e+000  3.0082110e-003 
 0.0000000e+000  6.6250038e-001  0.0000000e+000  2.8025969e-045  3.7655692e-041  0.0000000e+000 -2.8025969e-045  6.2215072e-003 
 0.0000000e+000  6.8750048e-001  0.0000000e+000  0.0000000e+000  0.0000000e+000  0.0000000e+000  0.0000000e+000  9.5718801e-003 
 0.0000000e+000  7.1250051e-001  0.0000000e+000  2.8025969e-045  3.7655692e-041  0.0000000e+000 -2.8025969e-045  1.2578115e-002 
 0.0000000e+000  7.3750049e-001  0.0000000e+000  0.0000000e+000  0.0000000e+000  0.0000000e+000  0.0000000e+000  1.4782121e-002 
 0.0000000e+000  7.6250052e-001  0.0000000e+000  2.8025969e-045  3.7655692e-041  0.0000000e+000 -2.8025969e-045  1.5789125e-002 
 0.0000000e+000  7.8750062e-001  0.0000000e+000  0.0000000e+000  0.0000000e+000  0.0000000e+000  0.0000000e+000  1.5527444e-002 
 0.0000000e+000  8.1250060e-001  0.0000000e+000  2.8025969e-045  3.7655692e-041  0.0000000e+000 -2.8025969e-045  1.4136974e-002 
 0.0000000e+000  8.3750063e-001  0.0000000e+000  0.0000000e+000  0.0000000e+000  0.0000000e+000  0.0000000e+000  1.1956752e-002 
 0.0000000e+000  8.6250067e-001  0.0000000e+000  2.8025969e-045  3.7655692e-041  0.0000000e+000 -2.8025969e-045  9.5509635e-003 
 0.0000000e+000  8.8750076e-001  0.0000000e+000  0.0000000e+000  0.0000000e+000  0.0000000e+000  0.0000000e+000  7.7074734e-003 
 0.0000000e+000  9.1250080e-001  0.0000000e+000  2.8025969e-045  3.7655692e-041  0.0000000e+000 -2.8025969e-045  7.6258946e-003 
 0.0000000e+000  9.3750083e-001  0.0000000e+000  0.0000000e+000  0.0000000e+000  0.0000000e+000  0.0000000e+000  1.1552644e-002 
 0.0000000e+000  9.6250087e-001  0.0000000e+000  2.8025969e-045  3.7655692e-041  0.0000000e+000 -2.8025969e-045  2.8417459e-002 
 0.0000000e+000  9.8750043e-001  0.0000000e+000  0.0000000e+000  0.0000000e+000  0.0000000e+000  0.0000000e+000  4.4073168e-002 
 0.0000000e+000  1.0000000e+000  0.0000000e+000  2.8025969e-045  3.7655692e-041  0.0000000e+000 -2.8025969e-045 -6.3905627e-002 
 0.0000000e+000  0.0000000e+000  1.0000000e+000 -4.1471867e-006  4.0190539e-004  0.0000000e+000  0.0000000e+000  6.3424641e-006 
 0.0000000e+000  1.2499990e-002  1.0000000e+000  4.2147271e-006 -3.3673171e-003  0.0000000e+000 -4.2147271e-006  7.2221992e-006 
 0.0000000e+000  3.7499964e-002  1.0000000e+000 -6.3755160e-006  4.3880031e-004  0.0000000e+000  6.3755160e-006  9.1895736e-006 
 0.0000000e+000  6.2499940e-002  1.0000000e+000  3.3930737e-006 -3.3276870e-003  0.0000000e+000 -3.3930737e-006  7.4714599e-006 
 0.0000000e+000  8.7499917e-002  1.0000000e+000 -7.1869385e-006  3.6160761e-004  0.0000000e+000  7.1869385e-006  1.1577958e-005 
 0.0000000e+000  1.1249990e-001  1.0000000e+000  5.7267944e-006 -2.8056542e-003  0.0000000e+000 -5.7267944e-006  2.7784807e-005 
 0.0000000e+000  1.3749990e-001  1.0000000e+000 -7.1077225e-006  1.7023909e-004  0.0000000e+000  7.1077225e-006  5.2548283e-005 
 0.0000000e+000  1.6249985e-001  1.0000000e+000  2.3028215e-006 -1.6310017e-003  0.0000000e+000 -2.3028215e-006  8.5978820e-005 
 0.0000000e+000  1.8749979e-001  1.0000000e+000 -8.2698707e-006 -8.2094411e-005  0.0000000e+000  8.2698707e-006  1.2983270e-004 
 0.0000000e+000  2.1249980e-001  1.0000000e+000 -8.1029830e-006  3.0940736e-004  0.0000000e+000  8.1029830e-006  1.8701056e-004 
 0.0000000e+000  2.3749980e-001  1.0000000e+000 -1.0529659e-005 -2.8984094e-004  0.0000000e+000  1.0529659e-005  2.6155048e-004 
 0.0000000e+000  2.6249984e-001  1.0000000e+000 -2.5712288e-005  2.9942153e-003  0.0000000e+000  2.5712288e-005  3.5870832e-004 
 0.0000000e+000  2.8749990e-001  1.0000000e+000 -1.3649244e-005 -3.0955076e-004  0.0000000e+000  1.3649244e-005  4.8502148e-004 
 0.0000000e+000  3.1249988e-001  1.0000000e+000 -5.0744657e-005  6.2138014e-003  0.0000000e+000  5.0744657e-005  6.4824551e-004 
 0.0000000e+000  3.3749995e-001  1.0000000e+000 -1.7515868e-005 -4.6805708e-005  0.0000000e+000  1.7515868e-005  8.5701863e-004 
 0.0000000e+000  3.6250001e-001  1.0000000e+000 -8.4175721e-005  9.5717655e-003  0.0000000e+000  8.4175721e-005  1.1199570e-003 
 0.0000000e+000  3.8749999e-001  1.0000000e+000 -2.2077124e-005  4.8340851e-004  0.0000000e+000  2.2077124e-005  1.4437058e-003 
 0.0000000e+000  4.1250005e-001  1.0000000e+000 -1.2794191e-004  1.2568823e-002  0.0000000e+000  1.2794191e-004  1.8292579e-003 
 0.0000000e+000  4.3750012e-001  1.0000000e+000 -2.7257796e-005  1.1477271e-003  0.0000000e+000  2.7257796e-005  2.2656545e-003 
 0.0000000e+000  4.6250010e-001  1.0000000e+000 -1.8501340e-004  1.4737497e-002  0.0000000e+000  1.8501340e-004  2.7205336e-003 
 0.0000000e+000  4.8750013e-001  1.0000000e+000 -3.2835294e-005  1.6697649e-003  0.0000000e+000  3.2835294e-005  3.1293889e-003 
 0.0000000e+000  5.1250017e-001  1.0000000e+000 -2.5948122e-004  1.5700584e-002  0.0000000e+000  2.5948122e-004  3.3912172e-003 
 0.0000000e+000  5.3750026e-001  1.0000000e+000 -3.8276205e-005  2.1274481e-003  0.0000000e+000  3.8276205e-005  3.3564931e-003 
 0.0000000e+000  5.6250030e-001  1.0000000e+000 -3.5666031e-004  1.5381010e-002  0.0000000e+000  3.5666031e-004  2.8288611e-003 
 0.0000000e+000  5.8750033e-001  1.0000000e+000 -4.2515283e-005  2.1179894e-003  0.0000000e+000  4.2515283e-005  1.6398622e-003 
 0.0000000e+000  6.1250037e-001  1.0000000e+000 -4.8315452e-004  1.3977415e-002  0.0000000e+000  4.8315452e-004  3.2011312e-004 
 0.0000000e+000  6.3750041e-001  1.0000000e+000 -4.3654003e-005  1.5646945e-003  0.0000000e+000  4.3654003e-005  3.0082110e-003 
 0.0000000e+000  6.6250038e-001  1.0000000e+000 -6.4677396e-004  1.1853930e-002  0.0000000e+000  6.4677396e-004  6.2215072e-003 
 0.0000000e+000  6.8750048e-001  1.0000000e+000 -3.8642371e-005  5.8856915e-004  0.0000000e+000  3.8642371e-005  9.5718801e-003 
 0.0000000e+000  7.1250051e-001  1.0000000e+000 -8.5614697e-004  9.5328121e-003  0.0000000e+000  8.5614697e-004  1.2578115e-002 
 0.0000000e+000  7.3750049e-001  1.0000000e+000 -2.3063265e-005 -8.0767972e-004  0.0000000e+000  2.3063265e-005  1.4782121e-002 
 0.0000000e+000  7.6250052e-001  1.0000000e+000 -1.1197195e-003  7.6650376e-003  0.0000000e+000  1.1197195e-003  1.5789125e-002 
 0.0000000e+000  7.8750062e-001  1.0000000e+000  8.6363307e-006 -2.9906575e-003  0.0000000e+000 -8.6363307e-006  1.5527444e-002 
 0.0000000e+000  8.1250060e-001  1.0000000e+000 -1.4436799e-003  7.0150006e-003  0.0000000e+000  1.4436799e-003  1.4136974e-002 
 0.0000000e+000  8.3750063e-001  1.0000000e+000  6.2021820e-005 -7.4227015e-003  0.0000000e+000 -6.2021820e-005  1.1956752e-002 
 0.0000000e+000  8.6250067e-001  1.0000000e+000 -1.8282062e-003  8.8525191e-003  0.0000000e+000  1.8282062e-003  9.5509635e-003 
 0.0000000e+000  8.8750076e-001  1.0000000e+000  1.4023606e-004 -2.0571822e-002  0.0000000e+000 -1.4023606e-004  7.7074734e-003 
 0.0000000e+000  9.1250080e-001  1.0000000e+000 -2.2613101e-003  1.9604901e-002  0.0000000e+000  2.2613101e-003  7.6258946e-003 
 0.0000000e+000  9.3750083e-001  1.0000000e+000  2.3940668e-004  3.2541059e-002  0.0000000e+000 -2.3940668e-004  1.1552644e-002 
 0.0000000e+000  9.6250087e-001  1.0000000e+000 -2.7099792e-003  2.9724125e-002  0.0000000e+000  2.7099792e-003  2.8417459e-002 
 0.0000000e+000  9.8750043e-001  1.0000000e+000  3.3916548e-004 -5.3265154e-002  0.0000000e+000 -3.3916548e-004  4.4073168e-002 
 0.0000000e+000  1.0000000e+000  1.0000000e+000 -3.1109550e-003  5.3163730e-002  0.0000000e+000  3.1109550e-003 -6.3905627e-002 
Zone i=1, j=42, k=2
 5.0000000e-001  0.0000000e+000  0.0000000e+000  0.0000000e+000  0.0000000e+000  0.0000000e+000  0.0000000e+000  8.6849850e-006 
 5.0000000e-001  1.2499990e-002  0.0000000e+000  0.0000000e+000  0.0000000e+000  0.0000000e+000  0.0000000e+000  8.2657689e-006 
 5.0000000e-001  3.7499964e-002  0.0000000e+000  0.0000000e+000  0.0000000e+000  0.0000000e+000  0.0000000e+000  7.7296854e-006 
 5.0000000e-001  6.2499940e-002  0.0000000e+000  0.0000000e+000  0.0000000e+000  0.0000000e+000  0.0000000e+000  8.8828028e-006 
 5.0000000e-001  8.7499917e-002  0.0000000e+000  0.0000000e+000  0.0000000e+000  0.0000000e+000  0.0000000e+000  2.6355978e-005 
 5.0000000e-001  1.1249990e-001  0.0000000e+000  0.0000000e+000  0.0000000e+000  0.0000000e+000  0.0000000e+000  5.4515436e-005 
 5.0000000e-001  1.3749990e-001  0.0000000e+000  0.0000000e+000  0.0000000e+000  0.0000000e+000  0.0000000e+000  9.1794136e-005 
 5.0000000e-001  1.6249985e-001  0.0000000e+000  0.0000000e+000  0.0000000e+000  0.0000000e+000  0.0000000e+000  1.3781236e-004 
 5.0000000e-001  1.8749979e-001  0.0000000e+000  0.0000000e+000  0.0000000e+000  0.0000000e+000  0.0000000e+000  1.9235407e-004 
 5.0000000e-001  2.1249980e-001  0.0000000e+000  0.0000000e+000  0.0000000e+000  0.0000000e+000  0.0000000e+000  2.5502700e-004 
 5.0000000e-001  2.3749980e-001  0.0000000e+000  0.0000000e+000  0.0000000e+000  0.0000000e+000  0.0000000e+000  3.2504971e-004 
 5.0000000e-001  2.6249984e-001  0.0000000e+000  0.0000000e+000  0.0000000e+000  0.0000000e+000  0.0000000e+000  4.0111961e-004 
 5.0000000e-001  2.8749990e-001  0.0000000e+000  0.0000000e+000  0.0000000e+000  0.0000000e+000  0.0000000e+000  4.8139892e-004 
 5.0000000e-001  3.1249988e-001  0.0000000e+000  0.0000000e+000  0.0000000e+000  0.0000000e+000  0.0000000e+000  5.6368316e-004 
 5.0000000e-001  3.3749995e-001  0.0000000e+000  0.0000000e+000  0.0000000e+000  0.0000000e+000  0.0000000e+000  6.4578687e-004 
 5.0000000e-001  3.6250001e-001  0.0000000e+000  0.0000000e+000  0.0000000e+000  0.0000000e+000  0.0000000e+000  7.2618545e-004 
 5.0000000e-001  3.8749999e-001  0.0000000e+000  0.0000000e+000  0.0000000e+000  0.0000000e+000  0.0000000e+000  8.0493448e-004 
 5.0000000e-001  4.1250005e-001  0.0000000e+000  0.0000000e+000  0.0000000e+000  0.0000000e+000  0.0000000e+000  8.8481460e-004 
 5.0000000e-001  4.3750012e-001  0.0000000e+000  0.0000000e+000  0.0000000e+000  0.0000000e+000  0.0000000e+000  9.7258191e-004 
 5.0000000e-001  4.6250010e-001  0.0000000e+000  0.0000000e+000  0.0000000e+000  0.0000000e+000  0.0000000e+000  1.0799940e-003 
 5.0000000e-001  4.8750013e-001  0.0000000e+000  0.0000000e+000  0.0000000e+000  0.0000000e+000  0.0000000e+000  1.2239084e-003 
 5.0000000e-001  5.1250017e-001  0.0000000e+000  0.0000000e+000  0.0000000e+000  0.0000000e+000  0.0000000e+000  1.4242127e-003 
 5.0000000e-001  5.3750026e-001  0.0000000e+000  0.0000000e+000  0.0000000e+000  0.0000000e+000  0.0000000e+000  1.6986666e-003 
 5.0000000e-001  5.6250030e-001  0.0000000e+000  0.0000000e+000  0.0000000e+000  0.0000000e+000  0.0000000e+000  2.0580222e-003 
 5.0000000e-001  5.8750033e-001  0.0000000e+000  0.0000000e+000  0.0000000e+000  0.0000000e+000  0.0000000e+000  2.5061725e-003 
 5.0000000e-001  6.1250037e-001  0.0000000e+000  0.0000000e+000  0.0000000e+000  0.0000000e+000  0.0000000e+000  3.0617123e-003 
 5.0000000e-001  6.3750041e-001  0.0000000e+000  0.0000000e+000  0.0000000e+000  0.0000000e+000  0.0000000e+000  3.7910638e-003 
 5.0000000e-001  6.6250038e-001  0.0000000e+000  0.0000000e+000  0.0000000e+000  0.0000000e+000  0.0000000e+000  4.7162310e-003 
 5.0000000e-001  6.8750048e-001  0.0000000e+000  0.0000000e+000  0.0000000e+000  0.0000000e+000  0.0000000e+000  5.4569924e-003 
 5.0000000e-001  7.1250051e-001  0.0000000e+000  0.0000000e+000  0.0000000e+000  0.0000000e+000  0.0000000e+000  4.7759437e-003 
 5.0000000e-001  7.3750049e-001  0.0000000e+000  0.0000000e+000  0.0000000e+000  0.0000000e+000  0.0000000e+000  3.9985003e-003 
 5.0000000e-001  7.6250052e-001  0.0000000e+000  0.0000000e+000  0.0000000e+000  0.0000000e+000  0.0000000e+000  1.3024767e-002 
 5.0000000e-001  7.8750062e-001  0.0000000e+000  0.0000000e+000  0.0000000e+000  0.0000000e+000  0.0000000e+000  2.7614163e-002 
 5.0000000e-001  8.1250060e-001  0.0000000e+000  0.0000000e+000  0.0000000e+000  0.0000000e+000  0.0000000e+000  4.4535492e-002 
 5.0000000e-001  8.3750063e-001  0.0000000e+000  0.0000000e+000  0.0000000e+000  0.0000000e+000  0.0000000e+000  6.1871305e-002 
 5.0000000e-001  8.6250067e-001  0.0000000e+000  0.0000000e+000  0.0000000e+000  0.0000000e+000  0.0000000e+000  7.8355461e-002 
 5.0000000e-001  8.8750076e-001  0.0000000e+000  0.0000000e+000  0.0000000e+000  0.0000000e+000  0.0000000e+000  9.2871912e-002 
 5.0000000e-001  9.1250080e-001  0.0000000e+000  0.0000000e+000  0.0000000e+000  0.0000000e+000  0.0000000e+000  1.0409877e-001 
 5.0000000e-001  9.3750083e-001  0.0000000e+000  0.0000000e+000  0.0000000e+000  0.0000000e+000  0.0000000e+000  1.0864349e-001 
 5.0000000e-001  9.6250087e-001  0.0000000e+000  0.0000000e+000  0.0000000e+000  0.0000000e+000  0.0000000e+000  9.7615816e-002 
 5.0000000e-001  9.8750043e-001  0.0000000e+000  0.0000000e+000  0.0000000e+000  0.0000000e+000  0.0000000e+000  1.2204648e-001 
 5.0000000e-001  1.0000000e+000  0.0000000e+000  0.0000000e+000  0.0000000e+000  0.0000000e+000  0.0000000e+000 -2.5109241e-002 
 5.0000000e-001  0.0000000e+000  1.0000000e+000 -5.8260171e-006  9.4681127e-005  0.0000000e+000  9.4681127e-005  8.6849850e-006 
 5.0000000e-001  1.2499990e-002  1.0000000e+000 -5.8576879e-006  1.4210620e-003  0.0000000e+000  1.4207646e-003  8.2657689e-006 
 5.0000000e-001  3.7499964e-002  1.0000000e+000 -7.4241616e-006  1.7886474e-004  0.0000000e+000  1.7891904e-004  7.7296854e-006 
 5.0000000e-001  6.2499940e-002  1.0000000e+000 -3.6338347e-006  1.6892233e-003  0.0000000e+000  1.6766297e-003  8.8828028e-006 
 5.0000000e-001  8.7499917e-002  1.0000000e+000 -7.0385490e-006  3.2318663e-004  0.0000000e+000  3.1956199e-004  2.6355978e-005 
 5.0000000e-001  1.1249990e-001  1.0000000e+000 -3.1948191e-006  2.0324877e-003  0.0000000e+000  1.9836162e-003  5.4515436e-005 
 5.0000000e-001  1.3749990e-001  1.0000000e+000 -6.1108649e-006  5.7207467e-004  0.0000000e+000  5.5321785e-004  9.1794136e-005 
 5.0000000e-001  1.6249985e-001  1.0000000e+000  6.4468222e-006  2.4400065e-003  0.0000000e+000  2.3185369e-003  1.3781236e-004 
 5.0000000e-001  1.8749979e-001  1.0000000e+000 -6.2683912e-006  1.0088379e-003  0.0000000e+000  9.4680551e-004  1.9235407e-004 
 5.0000000e-001  2.1249980e-001  1.0000000e+000  2.5599704e-005  2.8907314e-003  0.0000000e+000  2.6504168e-003  2.5502700e-004 
 5.0000000e-001  2.3749980e-001  1.0000000e+000 -7.0339156e-006  1.7992114e-003  0.0000000e+000  1.6282054e-003  3.2504971e-004 
 5.0000000e-001  2.6249984e-001  1.0000000e+000  5.4059754e-005  3.3369150e-003  0.0000000e+000  2.9293692e-003  4.0111961e-004 
 5.0000000e-001  2.8749990e-001  1.0000000e+000 -8.0001028e-006  2.9972205e-003  0.0000000e+000  2.6022974e-003  4.8139892e-004 
 5.0000000e-001  3.1249988e-001  1.0000000e+000  9.1444854e-005  3.6413602e-003  0.0000000e+000  3.0394019e-003  5.6368316e-004 
 5.0000000e-001  3.3749995e-001  1.0000000e+000 -8.9401292e-006  4.2826822e-003  0.0000000e+000  3.5546974e-003  6.4578687e-004 
 5.0000000e-001  3.6250001e-001  1.0000000e+000  1.3752207e-004  3.3819224e-003  0.0000000e+000  2.6573186e-003  7.2618545e-004 
 5.0000000e-001  3.8749999e-001  1.0000000e+000 -9.7542434e-006  4.5449450e-003  0.0000000e+000  3.5983681e-003  8.0493448e-004 
 5.0000000e-001  4.1250005e-001  1.0000000e+000  1.9210659e-004  1.4673497e-003  0.0000000e+000  1.0096209e-003  8.8481460e-004 
 5.0000000e-001  4.3750012e-001  1.0000000e+000 -1.0423907e-005  1.9574969e-003  0.0000000e+000  1.4800305e-003  9.7258191e-004 
 5.0000000e-001  4.6250010e-001  1.0000000e+000  2.5481390e-004 -3.4865756e-003  0.0000000e+000 -2.7325223e-003  1.0799940e-003 
 5.0000000e-001  4.8750013e-001  1.0000000e+000 -1.0978673e-005 -3.5001945e-003  0.0000000e+000 -2.4984752e-003  1.2239084e-003 
 5.0000000e-001  5.1250017e-001  1.0000000e+000  3.2486426e-004 -1.2545645e-002  0.0000000e+000 -8.9934539e-003  1.4242127e-003 
 5.0000000e-001  5.3750026e-001  1.0000000e+000 -1.1478255e-005 -1.0228587e-002  0.0000000e+000 -6.9583251e-003  1.6986666e-003 
 5.0000000e-001  5.6250030e-001  1.0000000e+000  4.0095535e-004 -2.5649913e-002  0.0000000e+000 -1.7340547e-002  2.0580222e-003 
 5.0000000e-001  5.8750033e-001  1.0000000e+000 -1.1976384e-005 -1.6360054e-002  0.0000000e+000 -1.0594132e-002  2.5061725e-003 
 5.0000000e-001  6.1250037e-001  1.0000000e+000  4.8124991e-004 -4.1421723e-002  0.0000000e+000 -2.6566920e-002  3.0617123e-003 
 5.0000000e-001  6.3750041e-001  1.0000000e+000 -1.2484200e-005 -2.1169940e-002  0.0000000e+000 -1.3054987e-002  3.7910638e-003 
 5.0000000e-001  6.6250038e-001  1.0000000e+000  5.6354486e-004 -5.8136839e-002  0.0000000e+000 -3.5471836e-002  4.7162310e-003 
 5.0000000e-001  6.8750048e-001  1.0000000e+000 -1.2900819e-005 -2.4840295e-002  0.0000000e+000 -1.4599919e-002  5.4569924e-003 
 5.0000000e-001  7.1250051e-001  1.0000000e+000  6.4565806e-004 -7.4313775e-002  0.0000000e+000 -4.3216233e-002  4.7759437e-003 
 5.0000000e-001  7.3750049e-001  1.0000000e+000 -1.2918842e-005 -2.7198514e-002  0.0000000e+000 -1.5251972e-002  3.9985003e-003 
 5.0000000e-001  7.6250052e-001  1.0000000e+000  7.2607049e-004 -8.8799953e-002  0.0000000e+000 -4.9301222e-002  1.3024767e-002 
 5.0000000e-001  7.8750062e-001  1.0000000e+000 -1.1878626e-005 -2.6889037e-002  0.0000000e+000 -1.4402707e-002  2.7614163e-002 
 5.0000000e-001  8.1250060e-001  1.0000000e+000  8.0484682e-004 -1.0056607e-001  0.0000000e+000 -5.3391847e-002  4.4535492e-002 
 5.0000000e-001  8.3750063e-001  1.0000000e+000 -8.5414549e-006 -2.1325853e-002  0.0000000e+000 -1.0924504e-002  6.1871305e-002 
 5.0000000e-001  8.6250067e-001  1.0000000e+000  8.8477338e-004 -1.0652988e-001  0.0000000e+000 -5.4193401e-002  7.8355461e-002 
 5.0000000e-001  8.8750076e-001  1.0000000e+000 -7.4208896e-007  1.3676010e-003  0.0000000e+000  6.7192448e-004  9.2871912e-002 
 5.0000000e-001  9.1250080e-001  1.0000000e+000  9.7258162e-004 -9.7606242e-002  0.0000000e+000 -4.7756080e-002  1.0409877e-001 
 5.0000000e-001  9.3750083e-001  1.0000000e+000  1.5054375e-005  1.0726673e-001  0.0000000e+000  5.0465144e-002  1.0864349e-001 
 5.0000000e-001  9.6250087e-001  1.0000000e+000  1.0798891e-003 -5.8216758e-002  0.0000000e+000 -2.7795614e-002  9.7615816e-002 
 5.0000000e-001  9.8750043e-001  1.0000000e+000  4.4248260e-005  1.4077141e-002  0.0000000e+000  6.3195199e-003  1.2204648e-001 
 5.0000000e-001  1.0000000e+000  1.0000000e+000  1.2231084e-003 -8.6043194e-002  0.0000000e+000 -3.9573668e-002 -2.5109241e-002 
Zone i=22, j=1, k=2
 0.0000000e+000  0.0000000e+000  0.0000000e+000  0.0000000e+000  0.0000000e+000  0.0000000e+000  0.0000000e+000  6.3424641e-006 
 1.2500005e-002  0.0000000e+000  0.0000000e+000  0.0000000e+000  0.0000000e+000  0.0000000e+000  0.0000000e+000  7.0767219e-006 
 3.7500009e-002  0.0000000e+000  0.0000000e+000  0.0000000e+000  0.0000000e+000  0.0000000e+000  0.0000000e+000  8.3373325e-006 
 6.2500015e-002  0.0000000e+000  0.0000000e+000  0.0000000e+000  0.0000000e+000  0.0000000e+000  0.0000000e+000  5.0242943e-006 
 8.7500006e-002  0.0000000e+000  0.0000000e+000  0.0000000e+000  0.0000000e+000  0.0000000e+000  0.0000000e+000  1.3728331e-005 
 1.1250000e-001  0.0000000e+000  0.0000000e+000  0.0000000e+000  0.0000000e+000  0.0000000e+000  0.0000000e+000  3.3871915e-005 
 1.3750000e-001  0.0000000e+000  0.0000000e+000  0.0000000e+000  0.0000000e+000  0.0000000e+000  0.0000000e+000  5.8182322e-005 
 1.6249999e-001  0.0000000e+000  0.0000000e+000  0.0000000e+000  0.0000000e+000  0.0000000e+000  0.0000000e+000  8.2874860e-005 
 1.8750000e-001  0.0000000e+000  0.0000000e+000  0.0000000e+000  0.0000000e+000  0.0000000e+000  0.0000000e+000  1.0463812e-004 
 2.1250005e-001  0.0000000e+000  0.0000000e+000  0.0000000e+000  0.0000000e+000  0.0000000e+000  0.0000000e+000  1.2088515e-004 
 2.3750010e-001  0.0000000e+000  0.0000000e+000  0.0000000e+000  0.0000000e+000  0.0000000e+000  0.0000000e+000  1.2995325e-004 
 2.6250011e-001  0.0000000e+000  0.0000000e+000  0.0000000e+000  0.0000000e+000  0.0000000e+000  0.0000000e+000  1.3114467e-004 
 2.8750008e-001  0.0000000e+000  0.0000000e+000  0.0000000e+000  0.0000000e+000  0.0000000e+000  0.0000000e+000  1.2463400e-004 
 3.1250015e-001  0.0000000e+000  0.0000000e+000  0.0000000e+000  0.0000000e+000  0.0000000e+000  0.0000000e+000  1.1130119e-004 
 3.3750021e-001  0.0000000e+000  0.0000000e+000  0.0000000e+000  0.0000000e+000  0.0000000e+000  0.0000000e+000  9.2569266e-005 
 3.6250019e-001  0.0000000e+000  0.0000000e+000  0.0000000e+000  0.0000000e+000  0.0000000e+000  0.0000000e+000  7.0297996e-005 
 3.8750026e-001  0.0000000e+000  0.0000000e+000  0.0000000e+000  0.0000000e+000  0.0000000e+000  0.0000000e+000  4.6780639e-005 
 4.1250032e-001  0.0000000e+000  0.0000000e+000  0.0000000e+000  0.0000000e+000  0.0000000e+000  0.0000000e+000  2.4837678e-005 
 4.3750030e-001  0.0000000e+000  0.0000000e+000  0.0000000e+000  0.0000000e+000  0.0000000e+000  0.0000000e+000  8.2586475e-006 
 4.6250033e-001  0.0000000e+000  0.0000000e+000  0.0000000e+000  0.0000000e+000  0.0000000e+000  0.0000000e+000  6.5669783e-006 
 4.8750019e-001  0.0000000e+000  0.0000000e+000  0.0000000e+000  0.0000000e+000  0.0000000e+000  0.0000000e+000  8.0797709e-006 
 5.0000000e-001  0.0000000e+000  0.0000000e+000  0.0000000e+000  0.0000000e+000  0.0000000e+000  0.0000000e+000  8.6849850e-006 
 0.0000000e+000  0.0000000e+000  1.0000000e+000 -4.1471867e-006  1.3114467e-004  0.0000000e+000  0.0000000e+000  6.3424641e-006 
 1.2500005e-002  0.0000000e+000  1.0000000e+000  4.2147271e-006  3.5573947e-008  0.0000000e+000  3.5573947e-008  7.0767219e-006 
 3.7500009e-002  0.0000000e+000  1.0000000e+000 -3.4076797e-006  1.2463085e-004  0.0000000e+000  1.2463085e-004  8.3373325e-006 
 6.2500015e-002  0.0000000e+000  1.0000000e+000  6.2022345e-006 -8.8472001e-007  0.0000000e+000 -8.8472001e-007  5.0242943e-006 
 8.7500006e-002  0.0000000e+000  1.0000000e+000 -5.5739010e-006  1.1128728e-004  0.0000000e+000  1.1128728e-004  1.3728331e-005 
 1.1250000e-001  0.0000000e+000  1.0000000e+000  6.2002205e-006 -1.7599956e-006  0.0000000e+000 -1.7599956e-006  3.3871915e-005 
 1.3750000e-001  0.0000000e+000  1.0000000e+000 -4.7549361e-007  9.2536538e-005  0.0000000e+000  9.2536538e-005  5.8182322e-005 
 1.6249999e-001  0.0000000e+000  1.0000000e+000  5.0017438e-006 -2.4611859e-006  0.0000000e+000 -2.4611859e-006  8.2874860e-005 
 1.8750000e-001  0.0000000e+000  1.0000000e+000  1.3216627e-005  7.0237897e-005  0.0000000e+000  7.0237897e-005  1.0463812e-004 
 2.1250005e-001  0.0000000e+000  1.0000000e+000  3.7132024e-006 -2.9062928e-006  0.0000000e+000 -2.9062928e-006  1.2088515e-004 
 2.3750010e-001  0.0000000e+000  1.0000000e+000  3.3740413e-005  4.6675406e-005  0.0000000e+000  4.6675406e-005  1.2995325e-004 
 2.6250011e-001  0.0000000e+000  1.0000000e+000  2.9818077e-006 -3.1359955e-006  0.0000000e+000 -3.1359955e-006  1.3114467e-004 
 2.8750008e-001  0.0000000e+000  1.0000000e+000  5.8123889e-005  2.4605872e-005  0.0000000e+000  2.4605872e-005  1.2463400e-004 
 3.1250015e-001  0.0000000e+000  1.0000000e+000  2.6069977e-006 -3.3854474e-006  0.0000000e+000 -3.3854474e-006  1.1130119e-004 
 3.3750021e-001  0.0000000e+000  1.0000000e+000  8.2841812e-005  7.1533468e-006  0.0000000e+000  7.1533468e-006  9.2569266e-005 
 3.6250019e-001  0.0000000e+000  1.0000000e+000  2.3400269e-006 -4.1273352e-006  0.0000000e+000 -4.1273352e-006  7.0297996e-005 
 3.8750026e-001  0.0000000e+000  1.0000000e+000  1.0461863e-004 -2.8385705e-006  0.0000000e+000 -2.8385705e-006  4.6780639e-005 
 4.1250032e-001  0.0000000e+000  1.0000000e+000  2.0194514e-006 -5.9218005e-006  0.0000000e+000 -5.9218005e-006  2.4837678e-005 
 4.3750030e-001  0.0000000e+000  1.0000000e+000  1.2087528e-004 -3.6362374e-006  0.0000000e+000 -3.6362374e-006  8.2586475e-006 
 4.6250033e-001  0.0000000e+000  1.0000000e+000  1.5448247e-006 -7.2152939e-006  0.0000000e+000 -7.2152939e-006  6.5669783e-006 
 4.8750019e-001  0.0000000e+000  1.0000000e+000  1.2995031e-004 -5.8260171e-006  0.0000000e+000 -5.8260171e-006  8.0797709e-006 
 5.0000000e-001  0.0000000e+000  1.0000000e+000  8.7470869e-007 -5.8576879e-006  0.0000000e+000 -5.8576879e-006  8.6849850e-006 
Zone i=22, j=1, k=2
 0.0000000e+000  1.0000000e+000  0.0000000e+000  0.0000000e+000  0.0000000e+000  0.0000000e+000  0.0000000e+000 -6.3905627e-002 
 1.2500005e-002  1.0000000e+000  0.0000000e+000  0.0000000e+000  0.0000000e+000  0.0000000e+000  0.0000000e+000 -1.6644412e-001 
 3.7500009e-002  1.0000000e+000  0.0000000e+000  0.0000000e+000  0.0000000e+000  0.0000000e+000  0.0000000e+000 -1.3990815e-001 
 6.2500015e-002  1.0000000e+000  0.0000000e+000  0.0000000e+000  0.0000000e+000  0.0000000e+000  0.0000000e+000 -1.2023510e-001 
 8.7500006e-002  1.0000000e+000  0.0000000e+000  0.0000000e+000  0.0000000e+000  0.0000000e+000  0.0000000e+000 -1.0613701e-001 
 1.1250000e-001  1.0000000e+000  0.0000000e+000  0.0000000e+000  0.0000000e+000  0.0000000e+000  0.0000000e+000 -9.4290316e-002 
 1.3750000e-001  1.0000000e+000  0.0000000e+000  0.0000000e+000  1.8459131e-038  0.0000000e+000  2.5144722e-039 -8.3538845e-002 
 1.6249999e-001  1.0000000e+000  0.0000000e+000  0.0000000e+000  0.0000000e+000  0.0000000e+000  0.0000000e+000 -7.3814757e-002 
 1.8750000e-001  1.0000000e+000  0.0000000e+000  0.0000000e+000  0.0000000e+000  0.0000000e+000  0.0000000e+000 -6.5280169e-002 
 2.1250005e-001  1.0000000e+000  0.0000000e+000  0.0000000e+000  0.0000000e+000  0.0000000e+000  0.0000000e+000 -5.8067791e-002 
 2.3750010e-001  1.0000000e+000  0.0000000e+000  0.0000000e+000  0.0000000e+000  0.0000000e+000  0.0000000e+000 -5.2234944e-002 
 2.6250011e-001  1.0000000e+000  0.0000000e+000  0.0000000e+000  0.0000000e+000  0.0000000e+000  0.0000000e+000 -4.7760252e-002 
 2.8750008e-001  1.0000000e+000  0.0000000e+000  0.0000000e+000  0.0000000e+000  0.0000000e+000  0.0000000e+000 -4.4573206e-002 
 3.1250015e-001  1.0000000e+000  0.0000000e+000  0.0000000e+000  0.0000000e+000  0.0000000e+000  0.0000000e+000 -4.2567670e-002 
 3.3750021e-001  1.0000000e+000  0.0000000e+000  0.0000000e+000  0.0000000e+000  0.0000000e+000  0.0000000e+000 -4.1715980e-002 
 3.6250019e-001  1.0000000e+000  0.0000000e+000  0.0000000e+000  0.0000000e+000  0.0000000e+000  0.0000000e+000 -4.2007774e-002 
 3.8750026e-001  1.0000000e+000  0.0000000e+000  0.0000000e+000  0.0000000e+000  0.0000000e+000  0.0000000e+000 -4.3890659e-002 
 4.1250032e-001  1.0000000e+000  0.0000000e+000  0.0000000e+000  0.0000000e+000  0.0000000e+000  0.0000000e+000 -4.7987536e-002 
 4.3750030e-001  1.0000000e+000  0.0000000e+000  0.0000000e+000  0.0000000e+000  0.0000000e+000  0.0000000e+000 -5.8128577e-002 