Variables = "x","y","z", "Shear Stress_x", "Shear Stress_y", "Shear Stress_z", "Shear Stress_circ", "Skin Friction"
Zone i=1, j=42, k=2
 0.0000000e+000  0.0000000e+000  0.0000000e+000  1.0000000e+000  0.0000000e+000  0.0000000e+000  0.0000000e+000  2.3202163e-006 
 0.0000000e+000  1.2499990e-002  0.0000000e+000  1.0000000e+000  0.0000000e+000  0.0000000e+000 -1.0000000e+000  8.1247208e-006 
 0.0000000e+000  3.7499964e-002  0.0000000e+000  1.0000000e+000  0.0000000e+000  0.0000000e+000 -1.0000000e+000  1.9553758e-005 
 0.0000000e+000  6.2499940e-002  0.0000000e+000  1.0000000e+000  0.0000000e+000  0.0000000e+000 -1.0000000e+000  2.9297375e-005 
 0.0000000e+000  8.7499917e-002  0.0000000e+000  1.0000000e+000  0.0000000e+000  0.0000000e+000 -1.0000000e+000  3.2631153e-005 
 0.0000000e+000  1.1249990e-001  0.0000000e+000  1.0000000e+000  0.0000000e+000  0.0000000e+000 -1.0000000e+000  2.7938237e-005 
 0.0000000e+000  1.3749990e-001  0.0000000e+000  1.0000000e+000  0.0000000e+000  0.0000000e+000 -1.0000000e+000  1.9208306e-005 
 0.0000000e+000  1.6249985e-001  0.0000000e+000  1.0000000e+000  0.0000000e+000  0.0000000e+000 -1.0000000e+000  2.6596561e-005 
 0.0000000e+000  1.8749979e-001  0.0000000e+000  1.0000000e+000  0.0000000e+000  0.0000000e+000 -1.0000000e+000  5.6893292e-005 
 0.0000000e+000  2.1249980e-001  0.0000000e+000  1.0000000e+000  0.0000000e+000  0.0000000e+000 -1.0000000e+000  1.0113270e-004 
 0.0000000e+000  2.3749980e-001  0.0000000e+000  1.0000000e+000  0.0000000e+000  0.0000000e+000 -1.0000000e+000  1.5888207e-004 
 0.0000000e+000  2.6249984e-001  0.0000000e+000  1.0000000e+000  0.0000000e+000  0.0000000e+000 -1.0000000e+000  2.3190395e-004 
 0.0000000e+000  2.8749990e-001  0.0000000e+000  1.0000000e+000  0.0000000e+000  0.0000000e+000 -1.0000000e+000  3.2258112e-004 
 0.0000000e+000  3.1249988e-001  0.0000000e+000  1.0000000e+000  0.0000000e+000  0.0000000e+000 -1.0000000e+000  4.3351078e-004 
 0.0000000e+000  3.3749995e-001  0.0000000e+000  1.0000000e+000  0.0000000e+000  0.0000000e+000 -1.0000000e+000  5.6727708e-004 
 0.0000000e+000  3.6250001e-001  0.0000000e+000  1.0000000e+000  0.0000000e+000  0.0000000e+000 -1.0000000e+000  7.2623446e-004 
 0.0000000e+000  3.8749999e-001  0.0000000e+000  1.0000000e+000  0.0000000e+000  0.0000000e+000 -1.0000000e+000  9.1229659e-004 
 0.0000000e+000  4.1250005e-001  0.0000000e+000  1.0000000e+000  0.0000000e+000  0.0000000e+000 -1.0000000e+000  1.1267181e-003 
 0.0000000e+000  4.3750012e-001  0.0000000e+000  1.0000000e+000  0.0000000e+000  0.0000000e+000 -1.0000000e+000  1.3698852e-003 
 0.0000000e+000  4.6250010e-001  0.0000000e+000  1.0000000e+000  0.0000000e+000  0.0000000e+000 -1.0000000e+000  1.6411257e-003 
 0.0000000e+000  4.8750013e-001  0.0000000e+000  1.0000000e+000  0.0000000e+000  0.0000000e+000 -1.0000000e+000  1.9385425e-003 
 0.0000000e+000  5.1250017e-001  0.0000000e+000  1.0000000e+000  0.0000000e+000  0.0000000e+000 -1.0000000e+000  2.2588396e-003 
 0.0000000e+000  5.3750026e-001  0.0000000e+000  1.0000000e+000  0.0000000e+000  0.0000000e+000 -1.0000000e+000  2.5971022e-003 
 0.0000000e+000  5.6250030e-001  0.0000000e+000  1.0000000e+000  0.0000000e+000  0.0000000e+000 -1.0000000e+000  2.9464506e-003 
 0.0000000e+000  5.8750033e-001  0.0000000e+000  1.0000000e+000  0.0000000e+000  0.0000000e+000 -1.0000000e+000  3.2974728e-003 
 0.0000000e+000  6.1250037e-001  0.0000000e+000  1.0000000e+000  0.0000000e+000  0.0000000e+000 -1.0000000e+000  3.6373206e-003 
 0.0000000e+000  6.3750041e-001  0.0000000e+000  1.0000000e+000  0.0000000e+000  0.0000000e+000 -1.0000000e+000  3.9483598e-003 
 0.0000000e+000  6.6250038e-001  0.0000000e+000  1.0000000e+000  0.0000000e+000  0.0000000e+000 -1.0000000e+000  4.2068358e-003 
 0.0000000e+000  6.8750048e-001  0.0000000e+000  1.0000000e+000  0.0000000e+000  0.0000000e+000 -1.0000000e+000  4.3831933e-003 
 0.0000000e+000  7.1250051e-001  0.0000000e+000  1.0000000e+000  0.0000000e+000  0.0000000e+000 -1.0000000e+000  4.4375868e-003 
 0.0000000e+000  7.3750049e-001  0.0000000e+000  1.0000000e+000  0.0000000e+000  0.0000000e+000 -1.0000000e+000  4.3146606e-003 
 0.0000000e+000  7.6250052e-001  0.0000000e+000  1.0000000e+000  0.0000000e+000  0.0000000e+000 -1.0000000e+000  3.9537665e-003 
 0.0000000e+000  7.8750062e-001  0.0000000e+000  1.0000000e+000  0.0000000e+000  0.0000000e+000 -1.0000000e+000  3.2880120e-003 
 0.0000000e+000  8.1250060e-001  0.0000000e+000  1.0000000e+000  0.0000000e+000  0.0000000e+000 -1.0000000e+000  2.2457428e-003 
 0.0000000e+000  8.3750063e-001  0.0000000e+000  1.0000000e+000  0.0000000e+000  0.0000000e+000 -1.0000000e+000  7.6301576e-004 
 0.0000000e+000  8.6250067e-001  0.0000000e+000  1.0000000e+000  0.0000000e+000  0.0000000e+000 -1.0000000e+000  1.2894967e-003 
 0.0000000e+000  8.8750076e-001  0.0000000e+000  1.0000000e+000  0.0000000e+000  0.0000000e+000 -1.0000000e+000  3.9701411e-003 
 0.0000000e+000  9.1250080e-001  0.0000000e+000  1.0000000e+000  0.0000000e+000  0.0000000e+000 -1.0000000e+000  7.5797108e-003 
 0.0000000e+000  9.3750083e-001  0.0000000e+000  1.0000000e+000  0.0000000e+000  0.0000000e+000 -1.0000000e+000  1.2873313e-002 
 0.0000000e+000  9.6250087e-001  0.0000000e+000  1.0000000e+000  0.0000000e+000  0.0000000e+000 -1.0000000e+000  2.7784158e-002 
 0.0000000e+000  9.8750043e-001  0.0000000e+000  1.0000000e+000  0.0000000e+000  0.0000000e+000 -1.0000000e+000  4.7412403e-002 
 0.0000000e+000  1.0000000e+000  0.0000000e+000  1.0000000e+000  0.0000000e+000  0.0000000e+000 -1.0000000e+000 -6.1315112e-002 
 0.0000000e+000  0.0000000e+000  1.0000000e+000 -1.6183968e-006 -1.7744143e-005  0.0000000e+000  0.0000000e+000  2.3202163e-006 
 0.0000000e+000  1.2499990e-002  1.0000000e+000  1.5933526e-006 -2.2587699e-003  0.0000000e+000 -1.5933526e-006  8.1247208e-006 
 0.0000000e+000  3.7499964e-002  1.0000000e+000 -6.6892621e-006  6.7813635e-006  0.0000000e+000  6.6892621e-006  1.9553758e-005 
 0.0000000e+000  6.2499940e-002  1.0000000e+000  4.6113842e-006 -2.5970933e-003  0.0000000e+000 -4.6113842e-006  2.9297375e-005 
 0.0000000e+000  8.7499917e-002  1.0000000e+000 -1.0737255e-005  3.7635680e-005  0.0000000e+000  1.0737255e-005  3.2631153e-005 
 0.0000000e+000  1.1249990e-001  1.0000000e+000  1.6341995e-005 -2.9462103e-003  0.0000000e+000 -1.6341995e-005  2.7938237e-005 
 0.0000000e+000  1.3749990e-001  1.0000000e+000 -1.0845831e-005  7.4889656e-005  0.0000000e+000  1.0845831e-005  1.9208306e-005 
 0.0000000e+000  1.6249985e-001  1.0000000e+000  2.7215881e-005 -3.2966223e-003  0.0000000e+000 -2.7215881e-005  2.6596561e-005 
 0.0000000e+000  1.8749979e-001  1.0000000e+000 -1.1668557e-005  1.1807041e-004  0.0000000e+000  1.1668557e-005  5.6893292e-005 
 0.0000000e+000  2.1249980e-001  1.0000000e+000  3.0473542e-005 -3.6354039e-003  0.0000000e+000 -3.0473542e-005  1.0113270e-004 
 0.0000000e+000  2.3749980e-001  1.0000000e+000 -1.3823998e-005  1.6564751e-004  0.0000000e+000  1.3823998e-005  1.5888207e-004 
 0.0000000e+000  2.6249984e-001  1.0000000e+000  2.4278430e-005 -3.9448836e-003  0.0000000e+000 -2.4278430e-005  2.3190395e-004 
 0.0000000e+000  2.8749990e-001  1.0000000e+000 -1.7097344e-005  2.1259893e-004  0.0000000e+000  1.7097344e-005  3.2258112e-004 
 0.0000000e+000  3.1249988e-001  1.0000000e+000  8.7544204e-006 -4.2014606e-003  0.0000000e+000 -8.7544204e-006  4.3351078e-004 
 0.0000000e+000  3.3749995e-001  1.0000000e+000 -2.1224047e-005  2.4971200e-004  0.0000000e+000  2.1224047e-005  5.6727708e-004 
 0.0000000e+000  3.6250001e-001  1.0000000e+000 -1.6028627e-005 -4.3760743e-003  0.0000000e+000  1.6028627e-005  7.2623446e-004 
 0.0000000e+000  3.8749999e-001  1.0000000e+000 -2.6002612e-005  2.8625361e-004  0.0000000e+000  2.6002612e-005  9.1229659e-004 
 0.0000000e+000  4.1250005e-001  1.0000000e+000 -5.0603463e-005 -4.4283443e-003  0.0000000e+000  5.0603463e-005  1.1267181e-003 
 0.0000000e+000  4.3750012e-001  1.0000000e+000 -3.1280022e-005  3.0410779e-004  0.0000000e+000  3.1280022e-005  1.3698852e-003 
 0.0000000e+000  4.6250010e-001  1.0000000e+000 -9.6173724e-005 -4.3039299e-003  0.0000000e+000  9.6173724e-005  1.6411257e-003 
 0.0000000e+000  4.8750013e-001  1.0000000e+000 -3.6925830e-005  2.8525115e-004  0.0000000e+000  3.6925830e-005  1.9385425e-003 
 0.0000000e+000  5.1250017e-001  1.0000000e+000 -1.5453153e-004 -3.9434633e-003  0.0000000e+000  1.5453153e-004  2.2588396e-003 
 0.0000000e+000  5.3750026e-001  1.0000000e+000 -4.2778935e-005  2.2296672e-004  0.0000000e+000  4.2778935e-005  2.5971022e-003 
 0.0000000e+000  5.6250030e-001  1.0000000e+000 -2.2792412e-004 -3.2804434e-003  0.0000000e+000  2.2792412e-004  2.9464506e-003 
 0.0000000e+000  5.8750033e-001  1.0000000e+000 -4.8612870e-005  1.0907032e-004  0.0000000e+000  4.8612870e-005  3.2974728e-003 
 0.0000000e+000  6.1250037e-001  1.0000000e+000 -3.1889710e-004 -2.2430925e-003  0.0000000e+000  3.1889710e-004  3.6373206e-003 
 0.0000000e+000  6.3750041e-001  1.0000000e+000 -5.4102406e-005 -6.7371890e-005  0.0000000e+000  5.4102406e-005  3.9483598e-003 
 0.0000000e+000  6.6250038e-001  1.0000000e+000 -4.3012152e-004 -7.6003553e-004  0.0000000e+000  4.3012152e-004  4.2068358e-003 
 0.0000000e+000  6.8750048e-001  1.0000000e+000 -5.8816124e-005 -3.3527485e-004  0.0000000e+000  5.8816124e-005  4.3831933e-003 
 0.0000000e+000  7.1250051e-001  1.0000000e+000 -5.6421978e-004  1.2451475e-003  0.0000000e+000  5.6421978e-004  4.4375868e-003 
 0.0000000e+000  7.3750049e-001  1.0000000e+000 -6.2219471e-005 -8.0727134e-004  0.0000000e+000  6.2219471e-005  4.3146606e-003 
 0.0000000e+000  7.6250052e-001  1.0000000e+000 -7.2356430e-004  3.8872010e-003  0.0000000e+000  7.2356430e-004  3.9537665e-003 
 0.0000000e+000  7.8750062e-001  1.0000000e+000 -6.3691099e-005 -1.8718534e-003  0.0000000e+000  6.3691099e-005  3.2880120e-003 
 0.0000000e+000  8.1250060e-001  1.0000000e+000 -9.1007061e-004  7.3449425e-003  0.0000000e+000  9.1007061e-004  2.2457428e-003 
 0.0000000e+000  8.3750063e-001  1.0000000e+000 -6.2547573e-005 -4.6928949e-003  0.0000000e+000  6.2547573e-005  7.6301576e-004 
 0.0000000e+000  8.6250067e-001  1.0000000e+000 -1.1249807e-003  1.1987449e-002  0.0000000e+000  1.1249807e-003  1.2894967e-003 
 0.0000000e+000  8.8750076e-001  1.0000000e+000 -5.8077967e-005 -1.5425400e-002  0.0000000e+000  5.8077967e-005  3.9701411e-003 
 0.0000000e+000  9.1250080e-001  1.0000000e+000 -1.3686535e-003  2.3108795e-002  0.0000000e+000  1.3686535e-003  7.5797108e-003 
 0.0000000e+000  9.3750083e-001  1.0000000e+000 -4.9571099e-005  3.5663154e-002  0.0000000e+000  4.9571099e-005  1.2873313e-002 
 0.0000000e+000  9.6250087e-001  1.0000000e+000 -1.6403769e-003  3.1242205e-002  0.0000000e+000  1.6403769e-003  2.7784158e-002 
 0.0000000e+000  9.8750043e-001  1.0000000e+000 -3.6340480e-005 -5.1803790e-002  0.0000000e+000  3.6340480e-005  4.7412403e-002 
 0.0000000e+000  1.0000000e+000  1.0000000e+000 -1.9382017e-003  5.4202918e-002  0.0000000e+000  1.9382017e-003 -6.1315112e-002 
Zone i=1, j=42, k=2
 2.0000000e+000  0.0000000e+000  0.0000000e+000  0.0000000e+000  0.0000000e+000  0.0000000e+000  0.0000000e+000  4.1018033e-005 
 2.0000000e+000  1.2499990e-002  0.0000000e+000  0.0000000e+000  0.0000000e+000  0.0000000e+000  0.0000000e+000  9.8674216e-005 
 2.0000000e+000  3.7499964e-002  0.0000000e+000  0.0000000e+000  0.0000000e+000  0.0000000e+000  0.0000000e+000  2.7205187e-004 
 2.0000000e+000  6.2499940e-002  0.0000000e+000  0.0000000e+000  0.0000000e+000  0.0000000e+000  0.0000000e+000  8.5257471e-004 
 2.0000000e+000  8.7499917e-002  0.0000000e+000  0.0000000e+000  0.0000000e+000  0.0000000e+000  0.0000000e+000  1.4183036e-003 
 2.0000000e+000  1.1249990e-001  0.0000000e+000  0.0000000e+000  0.0000000e+000  0.0000000e+000  0.0000000e+000  1.8113559e-003 
 2.0000000e+000  1.3749990e-001  0.0000000e+000  0.0000000e+000  0.0000000e+000  0.0000000e+000  0.0000000e+000  2.0086518e-003 
 2.0000000e+000  1.6249985e-001  0.0000000e+000  0.0000000e+000  0.0000000e+000  0.0000000e+000  0.0000000e+000  2.0822692e-003 
 2.0000000e+000  1.8749979e-001  0.0000000e+000  0.0000000e+000  0.0000000e+000  0.0000000e+000  0.0000000e+000  2.1298015e-003 
 2.0000000e+000  2.1249980e-001  0.0000000e+000  0.0000000e+000  0.0000000e+000  0.0000000e+000  0.0000000e+000  2.2080678e-003 
 2.0000000e+000  2.3749980e-001  0.0000000e+000  0.0000000e+000  0.0000000e+000  0.0000000e+000  0.0000000e+000  2.3115163e-003 
 2.0000000e+000  2.6249984e-001  0.0000000e+000  0.0000000e+000  0.0000000e+000  0.0000000e+000  0.0000000e+000  2.3952690e-003 
 2.0000000e+000  2.8749990e-001  0.0000000e+000  0.0000000e+000  0.0000000e+000  0.0000000e+000  0.0000000e+000  2.4073273e-003 
 2.0000000e+000  3.1249988e-001  0.0000000e+000  0.0000000e+000  0.0000000e+000  0.0000000e+000  0.0000000e+000  2.3145885e-003 
 2.0000000e+000  3.3749995e-001  0.0000000e+000  0.0000000e+000  0.0000000e+000  0.0000000e+000  0.0000000e+000  2.1275084e-003 
 2.0000000e+000  3.6250001e-001  0.0000000e+000  0.0000000e+000  0.0000000e+000  0.0000000e+000  0.0000000e+000  1.9543818e-003 
 2.0000000e+000  3.8749999e-001  0.0000000e+000  0.0000000e+000  0.0000000e+000  0.0000000e+000  0.0000000e+000  2.0162344e-003 
 2.0000000e+000  4.1250005e-001  0.0000000e+000  0.0000000e+000  0.0000000e+000  0.0000000e+000  0.0000000e+000  2.4792235e-003 
 2.0000000e+000  4.3750012e-001  0.0000000e+000  0.0000000e+000  0.0000000e+000  0.0000000e+000  0.0000000e+000  3.4160085e-003 
 2.0000000e+000  4.6250010e-001  0.0000000e+000  0.0000000e+000  0.0000000e+000  0.0000000e+000  0.0000000e+000  4.9725086e-003 
 2.0000000e+000  4.8750013e-001  0.0000000e+000  0.0000000e+000  0.0000000e+000  0.0000000e+000  0.0000000e+000  7.2624655e-003 
 2.0000000e+000  5.1250017e-001  0.0000000e+000  0.0000000e+000  0.0000000e+000  0.0000000e+000  0.0000000e+000  1.0252167e-002 
 2.0000000e+000  5.3750026e-001  0.0000000e+000  0.0000000e+000  0.0000000e+000  0.0000000e+000  0.0000000e+000  1.3817721e-002 
 2.0000000e+000  5.6250030e-001  0.0000000e+000  0.0000000e+000  0.0000000e+000  0.0000000e+000  0.0000000e+000  1.7828126e-002 
 2.0000000e+000  5.8750033e-001  0.0000000e+000  0.0000000e+000  0.0000000e+000  0.0000000e+000  0.0000000e+000  2.2188375e-002 
 2.0000000e+000  6.1250037e-001  0.0000000e+000  0.0000000e+000  0.0000000e+000  0.0000000e+000  0.0000000e+000  2.6852742e-002 
 2.0000000e+000  6.3750041e-001  0.0000000e+000  0.0000000e+000  0.0000000e+000  0.0000000e+000  0.0000000e+000  3.1823736e-002 
 2.0000000e+000  6.6250038e-001  0.0000000e+000  0.0000000e+000  0.0000000e+000  0.0000000e+000  0.0000000e+000  3.7144747e-002 
 2.0000000e+000  6.8750048e-001  0.0000000e+000  0.0000000e+000  0.0000000e+000  0.0000000e+000  0.0000000e+000  4.2889055e-002 
 2.0000000e+000  7.1250051e-001  0.0000000e+000  0.0000000e+000  0.0000000e+000  0.0000000e+000  0.0000000e+000  4.9145151e-002 
 2.0000000e+000  7.3750049e-001  0.0000000e+000  0.0000000e+000  0.0000000e+000  0.0000000e+000  0.0000000e+000  5.5996541e-002 
 2.0000000e+000  7.6250052e-001  0.0000000e+000  0.0000000e+000  0.0000000e+000  0.0000000e+000  0.0000000e+000  6.3494943e-002 
 2.0000000e+000  7.8750062e-001  0.0000000e+000  0.0000000e+000  0.0000000e+000  0.0000000e+000  0.0000000e+000  7.1631022e-002 
 2.0000000e+000  8.1250060e-001  0.0000000e+000  0.0000000e+000  0.0000000e+000  0.0000000e+000  0.0000000e+000  8.0301441e-002 
 2.0000000e+000  8.3750063e-001  0.0000000e+000  0.0000000e+000  0.0000000e+000  0.0000000e+000  0.0000000e+000  8.9228407e-002 
 2.0000000e+000  8.6250067e-001  0.0000000e+000  0.0000000e+000  0.0000000e+000  0.0000000e+000  0.0000000e+000  9.7815469e-002 
 2.0000000e+000  8.8750076e-001  0.0000000e+000  0.0000000e+000  0.0000000e+000  0.0000000e+000  0.0000000e+000  1.0516629e-001 
 2.0000000e+000  9.1250080e-001  0.0000000e+000  0.0000000e+000  0.0000000e+000  0.0000000e+000  0.0000000e+000  1.1017134e-001 
 2.0000000e+000  9.3750083e-001  0.0000000e+000  0.0000000e+000  0.0000000e+000  0.0000000e+000  0.0000000e+000  1.0966078e-001 
 2.0000000e+000  9.6250087e-001  0.0000000e+000  0.0000000e+000  0.0000000e+000  0.0000000e+000  0.0000000e+000  9.6770309e-002 
 2.0000000e+000  9.8750043e-001  0.0000000e+000  0.0000000e+000  0.0000000e+000  0.0000000e+000  0.0000000e+000  1.1998691e-001 
 2.0000000e+000  1.0000000e+000  0.0000000e+000  0.0000000e+000  0.0000000e+000  0.0000000e+000  0.0000000e+000 -2.5949270e-002 
 2.0000000e+000  0.0000000e+000  1.0000000e+000 -1.5930041e-004  1.1724604e-003  0.0000000e+000  1.1724604e-003  4.1018033e-005 
 2.0000000e+000  1.2499990e-002  1.0000000e+000 -1.7381234e-004 -1.0184905e-002  0.0000000e+000 -1.0183619e-002  9.8674216e-005 
 2.0000000e+000  3.7499964e-002  1.0000000e+000 -9.4201823e-005  4.7101930e-004  0.0000000e+000  4.7270250e-004  2.7205187e-004 
 2.0000000e+000  6.2499940e-002  1.0000000e+000 -2.9370352e-005 -1.3809690e-002  0.0000000e+000 -1.3802035e-002  8.5257471e-004 
 2.0000000e+000  8.7499917e-002  1.0000000e+000  5.2884159e-005 -2.0969156e-004  0.0000000e+000 -2.1180263e-004  1.4183036e-003 
 2.0000000e+000  1.1249990e-001  1.0000000e+000  2.6686231e-004 -1.7826892e-002  0.0000000e+000 -1.7813744e-002  1.8113559e-003 
 2.0000000e+000  1.3749990e-001  1.0000000e+000  8.1713079e-005 -8.4737444e-004  0.0000000e+000 -8.5098347e-004  2.0086518e-003 
 2.0000000e+000  1.6249985e-001  1.0000000e+000  8.4864988e-004 -2.2172188e-002  0.0000000e+000 -2.2168090e-002  2.0822692e-003 
 2.0000000e+000  1.8749979e-001  1.0000000e+000  3.0228975e-005 -1.4635948e-003  0.0000000e+000 -1.4600267e-003  2.1298015e-003 
 2.0000000e+000  2.1249980e-001  1.0000000e+000  1.4179813e-003 -2.6812825e-002  0.0000000e+000 -2.6812566e-002  2.2080678e-003 
 2.0000000e+000  2.3749980e-001  1.0000000e+000 -2.2621858e-005 -2.1106938e-003  0.0000000e+000 -2.0932998e-003  2.3115163e-003 
 2.0000000e+000  2.6249984e-001  1.0000000e+000  1.8112146e-003 -3.1753663e-002  0.0000000e+000 -3.1719344e-002  2.3952690e-003 
 2.0000000e+000  2.8749990e-001  1.0000000e+000 -2.7447979e-005 -2.8601345e-003  0.0000000e+000 -2.8271282e-003  2.4073273e-003 
 2.0000000e+000  3.1249988e-001  1.0000000e+000  2.0084642e-003 -3.7034467e-002  0.0000000e+000 -3.6900560e-002  2.3145885e-003 
 2.0000000e+000  3.3749995e-001  1.0000000e+000  2.2495764e-005 -3.7926531e-003  0.0000000e+000 -3.7435221e-003  2.1275084e-003 
 2.0000000e+000  3.6250001e-001  1.0000000e+000  2.0821476e-003 -4.2721033e-002  0.0000000e+000 -4.2407475e-002  1.9543818e-003 
 2.0000000e+000  3.8749999e-001  1.0000000e+000  9.9313416e-005 -4.9890378e-003  0.0000000e+000 -4.9168431e-003  2.0162344e-003 
 2.0000000e+000  4.1250005e-001  1.0000000e+000  2.1274847e-003 -4.8891261e-002  0.0000000e+000 -4.8313158e-002  2.4792235e-003 
 2.0000000e+000  4.3750012e-001  1.0000000e+000  1.9568202e-004 -6.5204934e-003  0.0000000e+000 -6.4116867e-003  3.4160085e-003 
 2.0000000e+000  4.6250010e-001  1.0000000e+000  2.1993800e-003 -5.5615608e-002  0.0000000e+000 -5.4681174e-002  4.9725086e-003 
 2.0000000e+000  4.8750013e-001  1.0000000e+000  3.1363685e-004 -8.4371930e-003  0.0000000e+000 -8.2714664e-003  7.2624655e-003 
 2.0000000e+000  5.1250017e-001  1.0000000e+000  2.2901397e-003 -6.2931880e-002  0.0000000e+000 -6.1530668e-002  1.0252167e-002 
 2.0000000e+000  5.3750026e-001  1.0000000e+000  4.6133998e-004 -1.0748786e-002  0.0000000e+000 -1.0500185e-002  1.3817721e-002 
 2.0000000e+000  5.6250030e-001  1.0000000e+000  2.3504209e-003 -7.0819959e-002  0.0000000e+000 -6.8811264e-002  1.7828126e-002 
 2.0000000e+000  5.8750033e-001  1.0000000e+000  6.3402421e-004 -1.3404234e-002  0.0000000e+000 -1.3039533e-002  2.2188375e-002 
 2.0000000e+000  6.1250037e-001  1.0000000e+000  2.3223346e-003 -7.9174794e-002  0.0000000e+000 -7.6384267e-002  2.6852742e-002 
 2.0000000e+000  6.3750041e-001  1.0000000e+000  8.4738340e-004 -1.6276674e-002  0.0000000e+000 -1.5765260e-002  3.1823736e-002 
 2.0000000e+000  6.6250038e-001  1.0000000e+000  2.1538946e-003 -8.7731287e-002  0.0000000e+000 -8.3958393e-002  3.7144747e-002 
 2.0000000e+000  6.8750048e-001  1.0000000e+000  1.1351811e-003 -1.9043304e-002  0.0000000e+000 -1.8378021e-002  4.2889055e-002 
 2.0000000e+000  7.1250051e-001  1.0000000e+000  1.7993489e-003 -9.5943831e-002  0.0000000e+000 -9.0983695e-002  4.9145151e-002 
 2.0000000e+000  7.3750049e-001  1.0000000e+000  1.5245237e-003 -2.0960018e-002  0.0000000e+000 -2.0193038e-002  5.5996541e-002 
 2.0000000e+000  7.6250052e-001  1.0000000e+000  1.2228800e-003 -1.0305642e-001  0.0000000e+000 -9.6731055e-002  6.3494943e-002 
 2.0000000e+000  7.8750062e-001  1.0000000e+000  1.9786474e-003 -2.1128822e-002  0.0000000e+000 -2.0384622e-002  7.1631022e-002 
 2.0000000e+000  8.1250060e-001  1.0000000e+000  3.8750045e-004 -1.0812630e-001  0.0000000e+000 -1.0032124e-001  8.0301441e-002 
 2.0000000e+000  8.3750063e-001  1.0000000e+000  2.3569879e-003 -1.8046001e-002  0.0000000e+000 -1.7555899e-002  8.9228407e-002 
 2.0000000e+000  8.6250067e-001  1.0000000e+000 -7.6886732e-004 -1.0816574e-001  0.0000000e+000 -9.9018942e-002  9.7815469e-002 
 2.0000000e+000  8.8750076e-001  1.0000000e+000  2.4906120e-003  1.7355309e-003  0.0000000e+000  5.7614282e-004  1.0516629e-001 
 2.0000000e+000  9.1250080e-001  1.0000000e+000 -2.3379405e-003 -9.6754737e-002  0.0000000e+000 -8.7055194e-002  1.1017134e-001 
 2.0000000e+000  9.3750083e-001  1.0000000e+000  2.2977330e-003  1.0532142e-001  0.0000000e+000  9.4388971e-002  1.0966078e-001 
 2.0000000e+000  9.6250087e-001  1.0000000e+000 -4.4097919e-003 -5.7482664e-002  0.0000000e+000 -4.9884361e-002  9.6770309e-002 
 2.0000000e+000  9.8750043e-001  1.0000000e+000  1.8201352e-003  1.2209933e-002  0.0000000e+000  1.0142309e-002  1.1998691e-001 
 2.0000000e+000  1.0000000e+000  1.0000000e+000 -7.0306836e-003 -8.4879592e-002  0.0000000e+000 -7.2774398e-002 -2.5949270e-002 
Zone i=82, j=1, k=2
 0.0000000e+000  0.0000000e+000  0.0000000e+000  0.0000000e+000  0.0000000e+000  0.0000000e+000  0.0000000e+000  2.3202163e-006 
 1.2499990e-002  0.0000000e+000  0.0000000e+000  0.0000000e+000  0.0000000e+000  0.0000000e+000  0.0000000e+000  8.2966944e-006 
 3.7499964e-002  0.0000000e+000  0.0000000e+000  0.0000000e+000  0.0000000e+000  0.0000000e+000  0.0000000e+000  2.0429618e-005 
 6.2499940e-002  0.0000000e+000  0.0000000e+000  0.0000000e+000  0.0000000e+000  0.0000000e+000  0.0000000e+000  2.9372392e-005 
 8.7499917e-002  0.0000000e+000  0.0000000e+000  0.0000000e+000  0.0000000e+000  0.0000000e+000  0.0000000e+000  2.7690787e-005 
 1.1249990e-001  0.0000000e+000  0.0000000e+000  0.0000000e+000  0.0000000e+000  0.0000000e+000  0.0000000e+000  1.3510711e-005 
 1.3749990e-001  0.0000000e+000  0.0000000e+000  0.0000000e+000  0.0000000e+000  0.0000000e+000  0.0000000e+000  3.3228353e-005 
 1.6249985e-001  0.0000000e+000  0.0000000e+000  0.0000000e+000  0.0000000e+000  0.0000000e+000  0.0000000e+000  8.6624561e-005 
 1.8749979e-001  0.0000000e+000  0.0000000e+000  0.0000000e+000  0.0000000e+000  0.0000000e+000  0.0000000e+000  1.5643328e-004 
 2.1249980e-001  0.0000000e+000  0.0000000e+000  0.0000000e+000  0.0000000e+000  0.0000000e+000  0.0000000e+000  2.3804151e-004 
 2.3749980e-001  0.0000000e+000  0.0000000e+000  0.0000000e+000  0.0000000e+000  0.0000000e+000  0.0000000e+000  3.2645432e-004 
 2.6249984e-001  0.0000000e+000  0.0000000e+000  0.0000000e+000  0.0000000e+000  0.0000000e+000  0.0000000e+000  4.1623347e-004 
 2.8749996e-001  0.0000000e+000  0.0000000e+000  0.0000000e+000  0.0000000e+000  0.0000000e+000  0.0000000e+000  5.0199154e-004 
 3.1250000e-001  0.0000000e+000  0.0000000e+000  0.0000000e+000  0.0000000e+000  0.0000000e+000  0.0000000e+000  5.7889952e-004 
 3.3750004e-001  0.0000000e+000  0.0000000e+000  0.0000000e+000  0.0000000e+000  0.0000000e+000  0.0000000e+000  6.4309983e-004 
 3.6250016e-001  0.0000000e+000  0.0000000e+000  0.0000000e+000  0.0000000e+000  0.0000000e+000  0.0000000e+000  6.9195474e-004 
 3.8750026e-001  0.0000000e+000  0.0000000e+000  0.0000000e+000  0.0000000e+000  0.0000000e+000  0.0000000e+000  7.2414067e-004 
 4.1250035e-001  0.0000000e+000  0.0000000e+000  0.0000000e+000  4.1612701e-036  0.0000000e+000  4.1612701e-036  7.3959073e-004 
 4.3750045e-001  0.0000000e+000  0.0000000e+000  0.0000000e+000  0.0000000e+000  0.0000000e+000  0.0000000e+000  7.3932356e-004 
 4.6250054e-001  0.0000000e+000  0.0000000e+000  0.0000000e+000  0.0000000e+000  0.0000000e+000  0.0000000e+000  7.2520511e-004 
 4.8750067e-001  0.0000000e+000  0.0000000e+000  0.0000000e+000  0.0000000e+000  0.0000000e+000  0.0000000e+000  6.9968426e-004 
 5.1250076e-001  0.0000000e+000  0.0000000e+000  0.0000000e+000  0.0000000e+000  0.0000000e+000  0.0000000e+000  6.6554599e-004 
 5.3750086e-001  0.0000000e+000  0.0000000e+000  0.0000000e+000  0.0000000e+000  0.0000000e+000  0.0000000e+000  6.2570127e-004 
 5.6250095e-001  0.0000000e+000  0.0000000e+000  0.0000000e+000  0.0000000e+000  0.0000000e+000  0.0000000e+000  5.8303698e-004 
 5.8750105e-001  0.0000000e+000  0.0000000e+000  0.0000000e+000  0.0000000e+000  0.0000000e+000  0.0000000e+000  5.4033427e-004 
 6.1250114e-001  0.0000000e+000  0.0000000e+000  0.0000000e+000  0.0000000e+000  0.0000000e+000  0.0000000e+000  5.0026702e-004 
 6.3750124e-001  0.0000000e+000  0.0000000e+000  0.0000000e+000  0.0000000e+000  0.0000000e+000  0.0000000e+000  4.6545803e-004 
 6.6250134e-001  0.0000000e+000  0.0000000e+000  0.0000000e+000  0.0000000e+000  0.0000000e+000  0.0000000e+000  4.3858329e-004 
 6.8750143e-001  0.0000000e+000  0.0000000e+000  0.0000000e+000  0.0000000e+000  0.0000000e+000  0.0000000e+000  4.2247341e-004 
 7.1250153e-001  0.0000000e+000  0.0000000e+000  0.0000000e+000  0.0000000e+000  0.0000000e+000  0.0000000e+000  4.2015268e-004 
 7.3750162e-001  0.0000000e+000  0.0000000e+000  0.0000000e+000  0.0000000e+000  0.0000000e+000  0.0000000e+000  4.3455570e-004 
 7.6250178e-001  0.0000000e+000  0.0000000e+000  0.0000000e+000  0.0000000e+000  0.0000000e+000  0.0000000e+000  4.6811084e-004 
 7.8750187e-001  0.0000000e+000  0.0000000e+000  0.0000000e+000  0.0000000e+000  0.0000000e+000  0.0000000e+000  5.2206416e-004 
 8.1250197e-001  0.0000000e+000  0.0000000e+000  0.0000000e+000  0.0000000e+000  0.0000000e+000  0.0000000e+000  5.9553300e-004 
 8.3750206e-001  0.0000000e+000  0.0000000e+000  0.0000000e+000  0.0000000e+000  0.0000000e+000  0.0000000e+000  6.8499695e-004 
 8.6250210e-001  0.0000000e+000  0.0000000e+000  0.0000000e+000  0.0000000e+000  0.0000000e+000  0.0000000e+000  7.8452687e-004 
 8.8750213e-001  0.0000000e+000  0.0000000e+000  0.0000000e+000  0.0000000e+000  0.0000000e+000  0.0000000e+000  8.8694470e-004 
 9.1250223e-001  0.0000000e+000  0.0000000e+000  0.0000000e+000  0.0000000e+000  0.0000000e+000  0.0000000e+000  9.8552613e-004 
 9.3750232e-001  0.0000000e+000  0.0000000e+000  0.0000000e+000  0.0000000e+000  0.0000000e+000  0.0000000e+000  1.0752765e-003 
 9.6250248e-001  0.0000000e+000  0.0000000e+000  0.0000000e+000  0.0000000e+000  0.0000000e+000  0.0000000e+000  1.1530377e-003 
 9.8750275e-001  0.0000000e+000  0.0000000e+000  0.0000000e+000  0.0000000e+000  0.0000000e+000  0.0000000e+000  1.2175316e-003 
 1.0125029e+000  0.0000000e+000  0.0000000e+000  0.0000000e+000  0.0000000e+000  0.0000000e+000  0.0000000e+000  1.2660974e-003 
 1.0375030e+000  0.0000000e+000  0.0000000e+000  0.0000000e+000  0.0000000e+000  0.0000000e+000  0.0000000e+000  1.2888592e-003 
 1.0625031e+000  0.0000000e+000  0.0000000e+000  0.0000000e+000  0.0000000e+000  0.0000000e+000  0.0000000e+000  1.2709382e-003 
 1.0875030e+000  0.0000000e+000  0.0000000e+000  0.0000000e+000  0.0000000e+000  0.0000000e+000  0.0000000e+000  1.1980064e-003 
 1.1125031e+000  0.0000000e+000  0.0000000e+000  0.0000000e+000  0.0000000e+000  0.0000000e+000  0.0000000e+000  1.0546297e-003 
 1.1375029e+000  0.0000000e+000  0.0000000e+000  0.0000000e+000  0.0000000e+000  0.0000000e+000  0.0000000e+000  8.4293383e-004 
 1.1625030e+000  0.0000000e+000  0.0000000e+000  0.0000000e+000  0.0000000e+000  0.0000000e+000  0.0000000e+000  6.6223397e-004 
 1.1875031e+000  0.0000000e+000  0.0000000e+000  0.0000000e+000  0.0000000e+000  0.0000000e+000  0.0000000e+000  8.6099457e-004 
 1.2125030e+000  0.0000000e+000  0.0000000e+000  0.0000000e+000  0.0000000e+000  0.0000000e+000  0.0000000e+000  1.5516258e-003 
 1.2375035e+000  0.0000000e+000  0.0000000e+000  0.0000000e+000  0.0000000e+000  0.0000000e+000  0.0000000e+000  2.5891841e-003 
 1.2625041e+000  0.0000000e+000  0.0000000e+000  0.0000000e+000  0.0000000e+000  0.0000000e+000  0.0000000e+000  3.9413809e-003 
 1.2875040e+000  0.0000000e+000  0.0000000e+000  0.0000000e+000  0.0000000e+000  0.0000000e+000  0.0000000e+000  5.6125475e-003 
 1.3125041e+000  0.0000000e+000  0.0000000e+000  0.0000000e+000  0.0000000e+000  0.0000000e+000  0.0000000e+000  7.5891977e-003 
 1.3375039e+000  0.0000000e+000  0.0000000e+000  0.0000000e+000  0.0000000e+000  0.0000000e+000  0.0000000e+000  9.8165311e-003 
 1.3625040e+000  0.0000000e+000  0.0000000e+000  0.0000000e+000  0.0000000e+000  0.0000000e+000  0.0000000e+000  1.2195001e-002 
 1.3875041e+000  0.0000000e+000  0.0000000e+000  0.0000000e+000  0.0000000e+000  0.0000000e+000  0.0000000e+000  1.4590445e-002 
 1.4125040e+000  0.0000000e+000  0.0000000e+000  0.0000000e+000  0.0000000e+000  0.0000000e+000  0.0000000e+000  1.6849071e-002 
 1.4375041e+000  0.0000000e+000  0.0000000e+000  0.0000000e+000  0.0000000e+000  0.0000000e+000  0.0000000e+000  1.8810660e-002 
 1.4625039e+000  0.0000000e+000  0.0000000e+000  0.0000000e+000  0.0000000e+000  0.0000000e+000  0.0000000e+000  2.0318868e-002 
 1.4875045e+000  0.0000000e+000  0.0000000e+000  0.0000000e+000  0.0000000e+000  0.0000000e+000  0.0000000e+000  2.1244492e-002 
 1.5125051e+000  0.0000000e+000  0.0000000e+000  0.0000000e+000  0.0000000e+000  0.0000000e+000  0.0000000e+000  2.1503747e-002 
 1.5375049e+000  0.0000000e+000  0.0000000e+000  0.0000000e+000  0.0000000e+000  0.0000000e+000  0.0000000e+000  2.0986747e-002 