Variables = "x","y","z", "Shear Stress_x", "Shear Stress_y", "Shear Stress_z", "Shear Stress_circ", "Skin Friction"
Zone i=1, j=42, k=2
 0.0000000e+000  0.0000000e+000  0.0000000e+000  1.0000000e+000  0.0000000e+000  0.0000000e+000  0.0000000e+000  1.5624179e-005 
 0.0000000e+000  1.2499990e-002  0.0000000e+000  1.0000000e+000  0.0000000e+000  0.0000000e+000 -1.0000000e+000  2.1730719e-005 
 0.0000000e+000  3.7499964e-002  0.0000000e+000  1.0000000e+000  0.0000000e+000  0.0000000e+000 -1.0000000e+000  3.3186450e-005 
 0.0000000e+000  6.2499940e-002  0.0000000e+000  1.0000000e+000  0.0000000e+000  0.0000000e+000 -1.0000000e+000  3.3085402e-005 
 0.0000000e+000  8.7499917e-002  0.0000000e+000  1.0000000e+000  0.0000000e+000  0.0000000e+000 -1.0000000e+000  2.3838073e-005 
 0.0000000e+000  1.1249990e-001  0.0000000e+000  1.0000000e+000  0.0000000e+000  0.0000000e+000 -1.0000000e+000  3.7289195e-005 
 0.0000000e+000  1.3749990e-001  0.0000000e+000  1.0000000e+000  0.0000000e+000  0.0000000e+000 -1.0000000e+000  8.3230647e-005 
 0.0000000e+000  1.6249985e-001  0.0000000e+000  1.0000000e+000  0.0000000e+000  0.0000000e+000 -1.0000000e+000  1.4707040e-004 
 0.0000000e+000  1.8749979e-001  0.0000000e+000  1.0000000e+000  0.0000000e+000  0.0000000e+000 -1.0000000e+000  2.2710179e-004 
 0.0000000e+000  2.1249980e-001  0.0000000e+000  1.0000000e+000  0.0000000e+000  0.0000000e+000 -1.0000000e+000  3.2439674e-004 
 0.0000000e+000  2.3749980e-001  0.0000000e+000  1.0000000e+000  0.0000000e+000  0.0000000e+000 -1.0000000e+000  4.4052242e-004 
 0.0000000e+000  2.6249984e-001  0.0000000e+000  1.0000000e+000  0.0000000e+000  0.0000000e+000 -1.0000000e+000  5.7680835e-004 
 0.0000000e+000  2.8749990e-001  0.0000000e+000  1.0000000e+000  0.0000000e+000  0.0000000e+000 -1.0000000e+000  7.3395233e-004 
 0.0000000e+000  3.1249988e-001  0.0000000e+000  1.0000000e+000  0.0000000e+000  0.0000000e+000 -1.0000000e+000  9.1176160e-004 
 0.0000000e+000  3.3749995e-001  0.0000000e+000  1.0000000e+000  0.0000000e+000  0.0000000e+000 -1.0000000e+000  1.1089678e-003 
 0.0000000e+000  3.6250001e-001  0.0000000e+000  1.0000000e+000  0.0000000e+000  0.0000000e+000 -1.0000000e+000  1.3230994e-003 
 0.0000000e+000  3.8749999e-001  0.0000000e+000  1.0000000e+000  0.0000000e+000  0.0000000e+000 -1.0000000e+000  1.5504109e-003 
 0.0000000e+000  4.1250005e-001  0.0000000e+000  1.0000000e+000  0.0000000e+000  0.0000000e+000 -1.0000000e+000  1.7858801e-003 
 0.0000000e+000  4.3750012e-001  0.0000000e+000  1.0000000e+000  0.0000000e+000  0.0000000e+000 -1.0000000e+000  2.0232631e-003 
 0.0000000e+000  4.6250010e-001  0.0000000e+000  1.0000000e+000  0.0000000e+000  0.0000000e+000 -1.0000000e+000  2.2551958e-003 
 0.0000000e+000  4.8750013e-001  0.0000000e+000  1.0000000e+000  0.0000000e+000  0.0000000e+000 -1.0000000e+000  2.4733152e-003 
 0.0000000e+000  5.1250017e-001  0.0000000e+000  1.0000000e+000  0.0000000e+000  0.0000000e+000 -1.0000000e+000  2.6683118e-003 
 0.0000000e+000  5.3750026e-001  0.0000000e+000  1.0000000e+000  0.0000000e+000  0.0000000e+000 -1.0000000e+000  2.8299121e-003 
 0.0000000e+000  5.6250030e-001  0.0000000e+000  1.0000000e+000  0.0000000e+000  0.0000000e+000 -1.0000000e+000  2.9474969e-003 
 0.0000000e+000  5.8750033e-001  0.0000000e+000  1.0000000e+000  0.0000000e+000  0.0000000e+000 -1.0000000e+000  3.0126076e-003 
 0.0000000e+000  6.1250037e-001  0.0000000e+000  1.0000000e+000  0.0000000e+000  0.0000000e+000 -1.0000000e+000  3.0131114e-003 
 0.0000000e+000  6.3750041e-001  0.0000000e+000  1.0000000e+000  0.0000000e+000  0.0000000e+000 -1.0000000e+000  2.9333055e-003 
 0.0000000e+000  6.6250038e-001  0.0000000e+000  1.0000000e+000  0.0000000e+000  0.0000000e+000 -1.0000000e+000  2.7646315e-003 
 0.0000000e+000  6.8750048e-001  0.0000000e+000  1.0000000e+000  0.0000000e+000  0.0000000e+000 -1.0000000e+000  2.4952239e-003 
 0.0000000e+000  7.1250051e-001  0.0000000e+000  1.0000000e+000  0.0000000e+000  0.0000000e+000 -1.0000000e+000  2.1132177e-003 
 0.0000000e+000  7.3750049e-001  0.0000000e+000  1.0000000e+000  0.0000000e+000  0.0000000e+000 -1.0000000e+000  1.6068361e-003 
 0.0000000e+000  7.6250052e-001  0.0000000e+000  1.0000000e+000  0.0000000e+000  0.0000000e+000 -1.0000000e+000  9.6360903e-004 
 0.0000000e+000  7.8750062e-001  0.0000000e+000  1.0000000e+000  0.0000000e+000  0.0000000e+000 -1.0000000e+000  1.6905308e-004 
 0.0000000e+000  8.1250060e-001  0.0000000e+000  1.0000000e+000  0.0000000e+000  0.0000000e+000 -1.0000000e+000  7.9915556e-004 
 0.0000000e+000  8.3750063e-001  0.0000000e+000  1.0000000e+000  0.0000000e+000  0.0000000e+000 -1.0000000e+000  1.9779936e-003 
 0.0000000e+000  8.6250067e-001  0.0000000e+000  1.0000000e+000  0.0000000e+000  0.0000000e+000 -1.0000000e+000  3.4483585e-003 
 0.0000000e+000  8.8750076e-001  0.0000000e+000  1.0000000e+000  0.0000000e+000  0.0000000e+000 -1.0000000e+000  5.3937742e-003 
 0.0000000e+000  9.1250080e-001  0.0000000e+000  1.0000000e+000  0.0000000e+000  0.0000000e+000 -1.0000000e+000  8.2014464e-003 
 0.0000000e+000  9.3750083e-001  0.0000000e+000  1.0000000e+000  0.0000000e+000  0.0000000e+000 -1.0000000e+000  1.2893746e-002 
 0.0000000e+000  9.6250087e-001  0.0000000e+000  1.0000000e+000  0.0000000e+000  0.0000000e+000 -1.0000000e+000  2.7811358e-002 
 0.0000000e+000  9.8750043e-001  0.0000000e+000  1.0000000e+000  0.0000000e+000  0.0000000e+000 -1.0000000e+000  4.7025457e-002 
 0.0000000e+000  1.0000000e+000  0.0000000e+000  1.0000000e+000  0.0000000e+000  0.0000000e+000 -1.0000000e+000 -6.1590232e-002 
 0.0000000e+000  0.0000000e+000  1.0000000e+000 -1.0419984e-005  5.8487465e-005  0.0000000e+000  0.0000000e+000  1.5624179e-005 
 0.0000000e+000  1.2499990e-002  1.0000000e+000  1.0136078e-005 -2.6676708e-003  0.0000000e+000 -1.0136078e-005  2.1730719e-005 
 0.0000000e+000  3.7499964e-002  1.0000000e+000 -1.8754496e-005  7.6557168e-005  0.0000000e+000  1.8754496e-005  3.3186450e-005 
 0.0000000e+000  6.2499940e-002  1.0000000e+000  1.0976934e-005 -2.8288763e-003  0.0000000e+000 -1.0976934e-005  3.3085402e-005 
 0.0000000e+000  8.7499917e-002  1.0000000e+000 -2.1905367e-005  9.0633854e-005  0.0000000e+000  2.1905367e-005  2.3838073e-005 
 0.0000000e+000  1.1249990e-001  1.0000000e+000  2.4929808e-005 -2.9461030e-003  0.0000000e+000 -2.4929808e-005  3.7289195e-005 
 0.0000000e+000  1.3749990e-001  1.0000000e+000 -2.0499647e-005  9.6326345e-005  0.0000000e+000  2.0499647e-005  8.3230647e-005 
 0.0000000e+000  1.6249985e-001  1.0000000e+000  2.5969373e-005 -3.0110672e-003  0.0000000e+000 -2.5969373e-005  1.4707040e-004 
 0.0000000e+000  1.8749979e-001  1.0000000e+000 -2.2277289e-005  1.1566307e-004  0.0000000e+000  2.2277289e-005  2.2710179e-004 
 0.0000000e+000  2.1249980e-001  1.0000000e+000  8.4838739e-006 -3.0108907e-003  0.0000000e+000 -8.4838739e-006  3.2439674e-004 
 0.0000000e+000  2.3749980e-001  1.0000000e+000 -2.6026315e-005  1.2414505e-004  0.0000000e+000  2.6026315e-005  4.4052242e-004 
 0.0000000e+000  2.6249984e-001  1.0000000e+000 -2.6704216e-005 -2.9306773e-003  0.0000000e+000  2.6704216e-005  5.7680835e-004 
 0.0000000e+000  2.8749990e-001  1.0000000e+000 -3.1003678e-005  1.2512745e-004  0.0000000e+000  3.1003678e-005  7.3395233e-004 
 0.0000000e+000  3.1249988e-001  1.0000000e+000 -7.7240613e-005 -2.7617984e-003  0.0000000e+000  7.7240613e-005  9.1176160e-004 
 0.0000000e+000  3.3749995e-001  1.0000000e+000 -3.6305046e-005  1.1972925e-004  0.0000000e+000  3.6305046e-005  1.1089678e-003 
 0.0000000e+000  3.6250001e-001  1.0000000e+000 -1.4251893e-004 -2.4923498e-003  0.0000000e+000  1.4251893e-004  1.3230994e-003 
 0.0000000e+000  3.8749999e-001  1.0000000e+000 -4.1310504e-005  1.0754341e-004  0.0000000e+000  4.1310504e-005  1.5504109e-003 
 0.0000000e+000  4.1250005e-001  1.0000000e+000 -2.2331293e-004 -2.1104794e-003  0.0000000e+000  2.2331293e-004  1.7858801e-003 
 0.0000000e+000  4.3750012e-001  1.0000000e+000 -4.5618475e-005  8.7867717e-005  0.0000000e+000  4.5618475e-005  2.0232631e-003 
 0.0000000e+000  4.6250010e-001  1.0000000e+000 -3.2117317e-004 -1.6044318e-003  0.0000000e+000  3.2117317e-004  2.2551958e-003 
 0.0000000e+000  4.8750013e-001  1.0000000e+000 -4.8877482e-005  5.9533595e-005  0.0000000e+000  4.8877482e-005  2.4733152e-003 
 0.0000000e+000  5.1250017e-001  1.0000000e+000 -4.3780246e-004 -9.6176821e-004  0.0000000e+000  4.3780246e-004  2.6683118e-003 
 0.0000000e+000  5.3750026e-001  1.0000000e+000 -5.0706887e-005  2.0285546e-005  0.0000000e+000  5.0706887e-005  2.8299121e-003 
 0.0000000e+000  5.6250030e-001  1.0000000e+000 -5.7457521e-004 -1.6783159e-004  0.0000000e+000  5.7457521e-004  2.9474969e-003 
 0.0000000e+000  5.8750033e-001  1.0000000e+000 -5.0691924e-005 -3.7218138e-005  0.0000000e+000  5.0691924e-005  3.0126076e-003 
 0.0000000e+000  6.1250037e-001  1.0000000e+000 -7.3219964e-004  7.9828838e-004  0.0000000e+000  7.3219964e-004  3.0131114e-003 
 0.0000000e+000  6.3750041e-001  1.0000000e+000 -4.8425725e-005 -1.3538910e-004  0.0000000e+000  4.8425725e-005  2.9333055e-003 
 0.0000000e+000  6.6250038e-001  1.0000000e+000 -9.1047469e-004  1.9733545e-003  0.0000000e+000  9.1047469e-004  2.7646315e-003 
 0.0000000e+000  6.8750048e-001  1.0000000e+000 -4.3563257e-005 -3.3114507e-004  0.0000000e+000  4.3563257e-005  2.4952239e-003 
 0.0000000e+000  7.1250051e-001  1.0000000e+000 -1.1081119e-003  3.4324217e-003  0.0000000e+000  1.1081119e-003  2.1132177e-003 
 0.0000000e+000  7.3750049e-001  1.0000000e+000 -3.5886984e-005 -7.7691569e-004  0.0000000e+000  3.5886984e-005  1.6068361e-003 
 0.0000000e+000  7.6250052e-001  1.0000000e+000 -1.3226126e-003  5.3375280e-003  0.0000000e+000  1.3226126e-003  9.6360903e-004 
 0.0000000e+000  7.8750062e-001  1.0000000e+000 -2.5343901e-005 -1.9024821e-003  0.0000000e+000  2.5343901e-005  1.6905308e-004 
 0.0000000e+000  8.1250060e-001  1.0000000e+000 -1.5502037e-003  7.9777371e-003  0.0000000e+000  1.5502037e-003  7.9915556e-004 
 0.0000000e+000  8.3750063e-001  1.0000000e+000 -1.2081460e-005 -4.9063447e-003  0.0000000e+000  1.2081460e-005  1.9779936e-003 
 0.0000000e+000  8.6250067e-001  1.0000000e+000 -1.7858391e-003  1.1923777e-002  0.0000000e+000  1.7858391e-003  3.4483585e-003 
 0.0000000e+000  8.8750076e-001  1.0000000e+000  3.5507653e-006 -1.5958138e-002  0.0000000e+000 -3.5507653e-006  5.3937742e-003 
 0.0000000e+000  9.1250080e-001  1.0000000e+000 -2.0232601e-003  2.2777390e-002  0.0000000e+000  2.0232601e-003  8.2014464e-003 
 0.0000000e+000  9.3750083e-001  1.0000000e+000  2.1013984e-005  3.5318051e-002  0.0000000e+000 -2.1013984e-005  1.2893746e-002 
 0.0000000e+000  9.6250087e-001  1.0000000e+000 -2.2550977e-003  3.1048818e-002  0.0000000e+000  2.2550977e-003  2.7811358e-002 
 0.0000000e+000  9.8750043e-001  1.0000000e+000  3.9602979e-005 -5.1980257e-002  0.0000000e+000 -3.9602979e-005  4.7025457e-002 
 0.0000000e+000  1.0000000e+000  1.0000000e+000 -2.4729981e-003  5.3994130e-002  0.0000000e+000  2.4729981e-003 -6.1590232e-002 
Zone i=1, j=42, k=2
 5.0000000e+000  0.0000000e+000  0.0000000e+000  0.0000000e+000  0.0000000e+000  0.0000000e+000  0.0000000e+000  5.6700210e-005 
 5.0000000e+000  1.2499990e-002  0.0000000e+000  0.0000000e+000  0.0000000e+000  0.0000000e+000  0.0000000e+000  1.1760481e-004 
 5.0000000e+000  3.7499964e-002  0.0000000e+000  0.0000000e+000  0.0000000e+000  0.0000000e+000  0.0000000e+000  3.2184512e-004 
 5.0000000e+000  6.2499940e-002  0.0000000e+000  0.0000000e+000  0.0000000e+000  0.0000000e+000  0.0000000e+000  1.0122919e-003 
 5.0000000e+000  8.7499917e-002  0.0000000e+000  0.0000000e+000  0.0000000e+000  0.0000000e+000  0.0000000e+000  1.6703150e-003 
 5.0000000e+000  1.1249990e-001  0.0000000e+000  0.0000000e+000  0.0000000e+000  0.0000000e+000  0.0000000e+000  2.1070947e-003 
 5.0000000e+000  1.3749990e-001  0.0000000e+000  0.0000000e+000  0.0000000e+000  0.0000000e+000  0.0000000e+000  2.3071109e-003 
 5.0000000e+000  1.6249985e-001  0.0000000e+000  0.0000000e+000  0.0000000e+000  0.0000000e+000  0.0000000e+000  2.3727510e-003 
 5.0000000e+000  1.8749979e-001  0.0000000e+000  0.0000000e+000  0.0000000e+000  0.0000000e+000  0.0000000e+000  2.4278732e-003 
 5.0000000e+000  2.1249980e-001  0.0000000e+000  0.0000000e+000  0.0000000e+000  0.0000000e+000  0.0000000e+000  2.5361131e-003 
 5.0000000e+000  2.3749980e-001  0.0000000e+000  0.0000000e+000  0.0000000e+000  0.0000000e+000  0.0000000e+000  2.6849022e-003 
 5.0000000e+000  2.6249984e-001  0.0000000e+000  0.0000000e+000  0.0000000e+000  0.0000000e+000  0.0000000e+000  2.8195076e-003 
 5.0000000e+000  2.8749990e-001  0.0000000e+000  0.0000000e+000  0.0000000e+000  0.0000000e+000  0.0000000e+000  2.8774524e-003 
 5.0000000e+000  3.1249988e-001  0.0000000e+000  0.0000000e+000  0.0000000e+000  0.0000000e+000  0.0000000e+000  2.8255729e-003 
 5.0000000e+000  3.3749995e-001  0.0000000e+000  0.0000000e+000  0.0000000e+000  0.0000000e+000  0.0000000e+000  2.7144328e-003 
 5.0000000e+000  3.6250001e-001  0.0000000e+000  0.0000000e+000  0.0000000e+000  0.0000000e+000  0.0000000e+000  2.6909492e-003 
 5.0000000e+000  3.8749999e-001  0.0000000e+000  0.0000000e+000  0.0000000e+000  0.0000000e+000  0.0000000e+000  2.8686568e-003 
 5.0000000e+000  4.1250005e-001  0.0000000e+000  0.0000000e+000  0.0000000e+000  0.0000000e+000  0.0000000e+000  3.2027767e-003 
 5.0000000e+000  4.3750012e-001  0.0000000e+000  0.0000000e+000  0.0000000e+000  0.0000000e+000  0.0000000e+000  3.8879164e-003 
 5.0000000e+000  4.6250010e-001  0.0000000e+000  0.0000000e+000  0.0000000e+000  0.0000000e+000  0.0000000e+000  5.5520781e-003 
 5.0000000e+000  4.8750013e-001  0.0000000e+000  0.0000000e+000  0.0000000e+000  0.0000000e+000  0.0000000e+000  8.4961290e-003 
 5.0000000e+000  5.1250017e-001  0.0000000e+000  0.0000000e+000  0.0000000e+000  0.0000000e+000  0.0000000e+000  1.2509925e-002 
 5.0000000e+000  5.3750026e-001  0.0000000e+000  0.0000000e+000  0.0000000e+000  0.0000000e+000  0.0000000e+000  1.7283082e-002 
 5.0000000e+000  5.6250030e-001  0.0000000e+000  0.0000000e+000  0.0000000e+000  0.0000000e+000  0.0000000e+000  2.2561179e-002 
 5.0000000e+000  5.8750033e-001  0.0000000e+000  0.0000000e+000  0.0000000e+000  0.0000000e+000  0.0000000e+000  2.8161570e-002 
 5.0000000e+000  6.1250037e-001  0.0000000e+000  0.0000000e+000  0.0000000e+000  0.0000000e+000  0.0000000e+000  3.3964865e-002 
 5.0000000e+000  6.3750041e-001  0.0000000e+000  0.0000000e+000  0.0000000e+000  0.0000000e+000  0.0000000e+000  3.9903197e-002 
 5.0000000e+000  6.6250038e-001  0.0000000e+000  0.0000000e+000  0.0000000e+000  0.0000000e+000  0.0000000e+000  4.5948841e-002 
 5.0000000e+000  6.8750048e-001  0.0000000e+000  0.0000000e+000  0.0000000e+000  0.0000000e+000  0.0000000e+000  5.2103031e-002 
 5.0000000e+000  7.1250051e-001  0.0000000e+000  0.0000000e+000  0.0000000e+000  0.0000000e+000  0.0000000e+000  5.8384929e-002 
 5.0000000e+000  7.3750049e-001  0.0000000e+000  0.0000000e+000  0.0000000e+000  0.0000000e+000  0.0000000e+000  6.4818591e-002 
 5.0000000e+000  7.6250052e-001  0.0000000e+000  0.0000000e+000  0.0000000e+000  0.0000000e+000  0.0000000e+000  7.1417578e-002 
 5.0000000e+000  7.8750062e-001  0.0000000e+000  0.0000000e+000  0.0000000e+000  0.0000000e+000  0.0000000e+000  7.8173593e-002 
 5.0000000e+000  8.1250060e-001  0.0000000e+000  0.0000000e+000  0.0000000e+000  0.0000000e+000  0.0000000e+000  8.5043266e-002 
 5.0000000e+000  8.3750063e-001  0.0000000e+000  0.0000000e+000  0.0000000e+000  0.0000000e+000  0.0000000e+000  9.1884226e-002 
 5.0000000e+000  8.6250067e-001  0.0000000e+000  0.0000000e+000  0.0000000e+000  0.0000000e+000  0.0000000e+000  9.8330781e-002 
 5.0000000e+000  8.8750076e-001  0.0000000e+000  0.0000000e+000  0.0000000e+000  0.0000000e+000  0.0000000e+000  1.0381803e-001 
 5.0000000e+000  9.1250080e-001  0.0000000e+000  0.0000000e+000  0.0000000e+000  0.0000000e+000  0.0000000e+000  1.0761078e-001 
 5.0000000e+000  9.3750083e-001  0.0000000e+000  0.0000000e+000  0.0000000e+000  0.0000000e+000  0.0000000e+000  1.0709649e-001 
 5.0000000e+000  9.6250087e-001  0.0000000e+000  0.0000000e+000  0.0000000e+000  0.0000000e+000  0.0000000e+000  9.5036238e-002 
 5.0000000e+000  9.8750043e-001  0.0000000e+000  0.0000000e+000  0.0000000e+000  0.0000000e+000  0.0000000e+000  1.1931296e-001 
 5.0000000e+000  1.0000000e+000  0.0000000e+000  0.0000000e+000  0.0000000e+000  0.0000000e+000  0.0000000e+000 -2.5127487e-002 
 5.0000000e+000  0.0000000e+000  1.0000000e+000 -1.8792581e-004  5.9249386e-004  0.0000000e+000  5.9249386e-004  5.6700210e-005 
 5.0000000e+000  1.2499990e-002  1.0000000e+000 -2.1055739e-004 -1.2495887e-002  0.0000000e+000 -1.2495321e-002  1.1760481e-004 
 5.0000000e+000  3.7499964e-002  1.0000000e+000 -1.1129700e-004 -5.0455739e-004  0.0000000e+000 -5.0370850e-004  3.2184512e-004 
 5.0000000e+000  6.2499940e-002  1.0000000e+000 -3.7998274e-005 -1.7275715e-002  0.0000000e+000 -1.7273891e-002  1.0122919e-003 
 5.0000000e+000  8.7499917e-002  1.0000000e+000  6.5873523e-005 -1.5087328e-003  0.0000000e+000 -1.5096544e-003  1.6703150e-003 
 5.0000000e+000  1.1249990e-001  1.0000000e+000  3.1503168e-004 -2.2510678e-002  0.0000000e+000 -2.2512068e-002  2.1070947e-003 
 5.0000000e+000  1.3749990e-001  1.0000000e+000  9.6113305e-005 -2.3913416e-003  0.0000000e+000 -2.3930800e-003  2.3071109e-003 
 5.0000000e+000  1.6249985e-001  1.0000000e+000  1.0077187e-003 -2.8059857e-002  0.0000000e+000 -2.8077783e-002  2.3727510e-003 
 5.0000000e+000  1.8749979e-001  1.0000000e+000  2.4444045e-005 -3.1706868e-003  0.0000000e+000 -3.1693757e-003  2.4278732e-003 
 5.0000000e+000  2.1249980e-001  1.0000000e+000  1.6701362e-003 -3.3816546e-002  0.0000000e+000 -3.3856964e-002  2.5361131e-003 
 5.0000000e+000  2.3749980e-001  1.0000000e+000 -4.3959986e-005 -3.8920806e-003  0.0000000e+000 -3.8856115e-003  2.6849022e-003 
 5.0000000e+000  2.6249984e-001  1.0000000e+000  2.1066361e-003 -3.9712932e-002  0.0000000e+000 -3.9768762e-002  2.8195076e-003 
 5.0000000e+000  2.8749990e-001  1.0000000e+000 -4.6380894e-005 -4.6139634e-003  0.0000000e+000 -4.6036923e-003  2.8774524e-003 
 5.0000000e+000  3.1249988e-001  1.0000000e+000  2.3066448e-003 -4.5716602e-002  0.0000000e+000 -4.5771457e-002  2.8255729e-003 
 5.0000000e+000  3.3749995e-001  1.0000000e+000  1.9056348e-005 -5.3995117e-003  0.0000000e+000 -5.3885362e-003  2.7144328e-003 
 5.0000000e+000  3.6250001e-001  1.0000000e+000  2.3726744e-003 -5.1822495e-002  0.0000000e+000 -5.1858402e-002  2.6909492e-003 
 5.0000000e+000  3.8749999e-001  1.0000000e+000  1.1959317e-004 -6.3118543e-003  0.0000000e+000 -6.3022248e-003  2.8686568e-003 
 5.0000000e+000  4.1250005e-001  1.0000000e+000  2.4249260e-003 -5.8042750e-002  0.0000000e+000 -5.8045605e-002  3.2027767e-003 
 5.0000000e+000  4.3750012e-001  1.0000000e+000  2.3091614e-004 -7.4103363e-003  0.0000000e+000 -7.4022587e-003  3.8879164e-003 
 5.0000000e+000  4.6250010e-001  1.0000000e+000  2.5255785e-003 -6.4393610e-002  0.0000000e+000 -6.4352504e-002  5.5520781e-003 
 5.0000000e+000  4.8750013e-001  1.0000000e+000  3.5044822e-004 -8.7457309e-003  0.0000000e+000 -8.7384628e-003  8.4961290e-003 
 5.0000000e+000  5.1250017e-001  1.0000000e+000  2.6619325e-003 -7.0880055e-002  0.0000000e+000 -7.0782048e-002  1.2509925e-002 
 5.0000000e+000  5.3750026e-001  1.0000000e+000  5.1939738e-004 -1.0353733e-002  0.0000000e+000 -1.0349937e-002  1.7283082e-002 
 5.0000000e+000  5.6250030e-001  1.0000000e+000  2.7712542e-003 -7.7484906e-002  0.0000000e+000 -7.7308989e-002  2.2561179e-002 
 5.0000000e+000  5.8750033e-001  1.0000000e+000  7.4953190e-004 -1.2244107e-002  0.0000000e+000 -1.2247918e-002  2.8161570e-002 
 5.0000000e+000  6.1250037e-001  1.0000000e+000  2.7781171e-003 -8.4157228e-002  0.0000000e+000 -8.3870599e-002  3.3964865e-002 
 5.0000000e+000  6.3750041e-001  1.0000000e+000  1.0409760e-003 -1.4394357e-002  0.0000000e+000 -1.4410424e-002  3.9903197e-002 
 5.0000000e+000  6.6250038e-001  1.0000000e+000  2.6268291e-003 -9.0749726e-002  0.0000000e+000 -9.0308490e-002  4.5948841e-002 
 5.0000000e+000  6.8750048e-001  1.0000000e+000  1.4691869e-003 -1.6690345e-002  0.0000000e+000 -1.6734902e-002  5.2103031e-002 
 5.0000000e+000  7.1250051e-001  1.0000000e+000  2.2824623e-003 -9.6903943e-002  0.0000000e+000 -9.6256797e-002  5.8384929e-002 
 5.0000000e+000  7.3750049e-001  1.0000000e+000  2.0742123e-003 -1.8654145e-002  0.0000000e+000 -1.8757147e-002  6.4818591e-002 
 5.0000000e+000  7.6250052e-001  1.0000000e+000  1.7143075e-003 -1.0212838e-001  0.0000000e+000 -1.0121958e-001  7.1417578e-002 
 5.0000000e+000  7.8750062e-001  1.0000000e+000  2.7365903e-003 -1.9431993e-002  0.0000000e+000 -1.9621134e-002  7.8173593e-002 
 5.0000000e+000  8.1250060e-001  1.0000000e+000  8.6038635e-004 -1.0584176e-001  0.0000000e+000 -1.0460940e-001  8.5043266e-002 
 5.0000000e+000  8.3750063e-001  1.0000000e+000  3.1762582e-003 -1.7201841e-002  0.0000000e+000 -1.7490207e-002  9.1884226e-002 
 5.0000000e+000  8.6250067e-001  1.0000000e+000 -4.1129219e-004 -1.0570598e-001  0.0000000e+000 -1.0409761e-001  9.8330781e-002 
 5.0000000e+000  8.8750076e-001  1.0000000e+000  3.1479413e-003  1.7812006e-003  0.0000000e+000  1.2036267e-003  1.0381803e-001 
 5.0000000e+000  9.1250080e-001  1.0000000e+000 -2.2817450e-003 -9.5019542e-002  0.0000000e+000 -9.3065975e-002  1.0761078e-001 
 5.0000000e+000  9.3750083e-001  1.0000000e+000  2.6053640e-003  1.0503235e-001  0.0000000e+000  1.0275323e-001  1.0709649e-001 
 5.0000000e+000  9.6250087e-001  1.0000000e+000 -4.9028210e-003 -5.6602016e-002  0.0000000e+000 -5.4654781e-002  9.5036238e-002 
 5.0000000e+000  9.8750043e-001  1.0000000e+000  1.6857242e-003  1.2219071e-002  0.0000000e+000  1.1660892e-002  1.1931296e-001 
 5.0000000e+000  1.0000000e+000  1.0000000e+000 -8.3272168e-003 -8.3932579e-002  0.0000000e+000 -8.0669563e-002 -2.5127487e-002 
Zone i=202, j=1, k=2
 0.0000000e+000  0.0000000e+000  0.0000000e+000  0.0000000e+000  4.1875124e+000  0.0000000e+000  0.0000000e+000  1.5624179e-005 
 1.2500000e-002  0.0000000e+000  0.0000000e+000  0.0000000e+000  4.2125120e+000  0.0000000e+000  4.2125120e+000  2.2135131e-005 
 3.7500001e-002  0.0000000e+000  0.0000000e+000  0.0000000e+000  4.2375116e+000  0.0000000e+000  4.2375116e+000  3.5914385e-005 
 6.2500194e-002  0.0000000e+000  0.0000000e+000  0.0000000e+000  4.2625113e+000  0.0000000e+000  4.2625113e+000  3.3203745e-005 
 8.7500393e-002  0.0000000e+000  0.0000000e+000  0.0000000e+000  4.2875109e+000  0.0000000e+000  4.2875109e+000  2.2988481e-005 
 1.1250040e-001  0.0000000e+000  0.0000000e+000  0.0000000e+000  4.3125105e+000  0.0000000e+000  4.3125105e+000  8.2078113e-005 
 1.3750060e-001  0.0000000e+000  0.0000000e+000  0.0000000e+000  4.3375101e+000  0.0000000e+000  4.3375101e+000  1.8934291e-004 
 1.6250080e-001  0.0000000e+000  0.0000000e+000  0.0000000e+000  4.3625097e+000  0.0000000e+000  4.3625097e+000  3.3270242e-004 
 1.8750080e-001  0.0000000e+000  0.0000000e+000  0.0000000e+000  4.3875093e+000  0.0000000e+000  4.3875093e+000  5.0525833e-004 
 2.1250080e-001  0.0000000e+000  0.0000000e+000  0.0000000e+000  4.4125090e+000  0.0000000e+000  4.4125090e+000  6.9831638e-004 
 2.3750080e-001  0.0000000e+000  0.0000000e+000  0.0000000e+000  4.4375086e+000  0.0000000e+000  4.4375086e+000  9.0181601e-004 
 2.6250094e-001  0.0000000e+000  0.0000000e+000  0.0000000e+000  4.4625082e+000  0.0000000e+000  4.4625082e+000  1.1053443e-003 
 2.8750110e-001  0.0000000e+000  0.0000000e+000  0.0000000e+000  4.4875078e+000  0.0000000e+000  4.4875078e+000  1.2991461e-003 
 3.1250116e-001  0.0000000e+000  0.0000000e+000  0.0000000e+000  4.5125074e+000  0.0000000e+000  4.5125074e+000  1.4749317e-003 
 3.3750135e-001  0.0000000e+000  0.0000000e+000  0.0000000e+000  4.5375071e+000  0.0000000e+000  4.5375071e+000  1.6263957e-003 
 3.6250150e-001  0.0000000e+000  0.0000000e+000  0.0000000e+000  4.5625067e+000  0.0000000e+000  4.5625067e+000  1.7494099e-003 
 3.8750148e-001  0.0000000e+000  0.0000000e+000  0.0000000e+000  4.5875063e+000  0.0000000e+000  4.5875063e+000  1.8419891e-003 
 4.1250151e-001  0.0000000e+000  0.0000000e+000  0.0000000e+000  4.6125059e+000  0.0000000e+000  4.6125059e+000  1.9041023e-003 
 4.3750149e-001  0.0000000e+000  0.0000000e+000  0.0000000e+000  4.6375055e+000  0.0000000e+000  4.6375055e+000  1.9371979e-003 
 4.6250170e-001  0.0000000e+000  0.0000000e+000  0.0000000e+000  4.6625051e+000  0.0000000e+000  4.6625051e+000  1.9425463e-003 
 4.8750192e-001  0.0000000e+000  0.0000000e+000  0.0000000e+000  4.6875048e+000  0.0000000e+000  4.6875048e+000  1.9247212e-003 
 5.1250190e-001  0.0000000e+000  0.0000000e+000  0.0000000e+000  4.7125044e+000  0.0000000e+000  4.7125044e+000  1.8878581e-003 
 5.3750205e-001  0.0000000e+000  0.0000000e+000  0.0000000e+000  4.7375040e+000  0.0000000e+000  4.7375040e+000  1.8346392e-003 
 5.6250226e-001  0.0000000e+000  0.0000000e+000  0.0000000e+000  4.7625036e+000  0.0000000e+000  4.7625036e+000  1.7687627e-003 
 5.8750230e-001  0.0000000e+000  0.0000000e+000  0.0000000e+000  4.7875032e+000  0.0000000e+000  4.7875032e+000  1.6937689e-003 
 6.1250234e-001  0.0000000e+000  0.0000000e+000  0.0000000e+000  4.8125029e+000  0.0000000e+000  4.8125029e+000  1.6127857e-003 
 6.3750231e-001  0.0000000e+000  0.0000000e+000  0.0000000e+000  4.8375025e+000  0.0000000e+000  4.8375025e+000  1.5285367e-003 
 6.6250253e-001  0.0000000e+000  0.0000000e+000  0.0000000e+000  4.8625021e+000  0.0000000e+000  4.8625021e+000  1.4433451e-003 
 6.8750268e-001  0.0000000e+000  0.0000000e+000  0.0000000e+000  4.8875017e+000  0.0000000e+000  4.8875017e+000  1.3591463e-003 
 7.1250260e-001  0.0000000e+000  0.0000000e+000  0.0000000e+000  4.9125013e+000  0.0000000e+000  4.9125013e+000  1.2775093e-003 
 7.3750281e-001  0.0000000e+000  0.0000000e+000  0.0000000e+000  4.9375010e+000  0.0000000e+000  4.9375010e+000  1.1996635e-003 
 7.6250303e-001  0.0000000e+000  0.0000000e+000  0.0000000e+000  4.9625006e+000  0.0000000e+000  4.9625006e+000  1.1265413e-003 
 7.8750312e-001  0.0000000e+000  0.0000000e+000  0.0000000e+000  4.9875002e+000  0.0000000e+000  4.9875002e+000  1.0588135e-003 
 8.1250310e-001  0.0000000e+000  0.0000000e+000  0.0000000e+000  5.0000000e+000  0.0000000e+000  5.0000000e+000  9.9692785e-004 
 8.3750308e-001  0.0000000e+000  0.0000000e+000  0.0000000e+000  2.8209457e+010  0.0000000e+000  2.8209457e+010  9.4114599e-004 
 8.6250329e-001  0.0000000e+000  0.0000000e+000  0.0000000e+000  0.0000000e+000  0.0000000e+000  0.0000000e+000  8.9157955e-004 
 8.8750345e-001  0.0000000e+000  0.0000000e+000  0.0000000e+000  0.0000000e+000  0.0000000e+000  0.0000000e+000  8.4822043e-004 
 9.1250336e-001  0.0000000e+000  0.0000000e+000  0.0000000e+000  0.0000000e+000  0.0000000e+000  0.0000000e+000  8.1096520e-004 
 9.3750358e-001  0.0000000e+000  0.0000000e+000  0.0000000e+000  0.0000000e+000  0.0000000e+000  0.0000000e+000  7.7963754e-004 
 9.6250379e-001  0.0000000e+000  0.0000000e+000  0.0000000e+000  0.0000000e+000  0.0000000e+000  0.0000000e+000  7.5400894e-004 
 9.8750389e-001  0.0000000e+000  0.0000000e+000  0.0000000e+000  0.0000000e+000  0.0000000e+000  0.0000000e+000  7.3380943e-004 
 1.0125041e+000  0.0000000e+000  0.0000000e+000  0.0000000e+000  0.0000000e+000  0.0000000e+000  0.0000000e+000  7.1873743e-004 
 1.0375040e+000  0.0000000e+000  0.0000000e+000  0.0000000e+000  0.0000000e+000  0.0000000e+000  0.0000000e+000  7.0846290e-004 
 1.0625041e+000  0.0000000e+000  0.0000000e+000  0.0000000e+000  0.0000000e+000  0.0000000e+000  0.0000000e+000  7.0263998e-004 
 1.0875039e+000  0.0000000e+000  0.0000000e+000  0.0000000e+000  0.0000000e+000  0.0000000e+000  0.0000000e+000  7.0101314e-004 
 1.1125040e+000  0.0000000e+000  0.0000000e+000  0.0000000e+000  0.0000000e+000  0.0000000e+000  0.0000000e+000  7.0313754e-004 
 1.1375046e+000  0.0000000e+000  0.0000000e+000  0.0000000e+000  0.0000000e+000  0.0000000e+000  0.0000000e+000  7.0857111e-004 
 1.1625049e+000  0.0000000e+000  0.0000000e+000  0.0000000e+000  0.0000000e+000  0.0000000e+000  0.0000000e+000  7.1702659e-004 
 1.1875050e+000  0.0000000e+000  0.0000000e+000  0.0000000e+000  0.0000000e+000  0.0000000e+000  0.0000000e+000  7.2811329e-004 
 1.2125051e+000  0.0000000e+000  0.0000000e+000  0.0000000e+000  0.0000000e+000  0.0000000e+000  0.0000000e+000  7.4143021e-004 
 1.2375050e+000  0.0000000e+000  0.0000000e+000  0.0000000e+000  0.0000000e+000  0.0000000e+000  0.0000000e+000  7.5658347e-004 
 1.2625051e+000  0.0000000e+000  0.0000000e+000  0.0000000e+000  0.0000000e+000  0.0000000e+000  0.0000000e+000  7.7318185e-004 
 1.2875049e+000  0.0000000e+000  0.0000000e+000  0.0000000e+000  0.0000000e+000  0.0000000e+000  0.0000000e+000  7.9084036e-004 
 1.3125050e+000  0.0000000e+000  0.0000000e+000  0.0000000e+000  0.0000000e+000  0.0000000e+000  0.0000000e+000  8.0918387e-004 
 1.3375051e+000  0.0000000e+000  0.0000000e+000  0.0000000e+000  0.0000000e+000  0.0000000e+000  0.0000000e+000  8.2785083e-004 
 1.3625050e+000  0.0000000e+000  0.0000000e+000  0.0000000e+000  0.0000000e+000  0.0000000e+000  0.0000000e+000  8.4649998e-004 
 1.3875051e+000  0.0000000e+000  0.0000000e+000  0.0000000e+000  0.0000000e+000  0.0000000e+000  0.0000000e+000  8.6481305e-004 
 1.4125049e+000  0.0000000e+000  0.0000000e+000  0.0000000e+000  0.0000000e+000  0.0000000e+000  0.0000000e+000  8.8250067e-004 
 1.4375050e+000  0.0000000e+000  0.0000000e+000  0.0000000e+000  0.0000000e+000  0.0000000e+000  0.0000000e+000  8.9930627e-004 
 1.4625056e+000  0.0000000e+000  0.0000000e+000  0.0000000e+000  0.0000000e+000  0.0000000e+000  0.0000000e+000  9.1500761e-004 
 1.4875059e+000  0.0000000e+000  0.0000000e+000  0.0000000e+000  0.0000000e+000  0.0000000e+000  0.0000000e+000  9.2942058e-004 
 1.5125060e+000  0.0000000e+000  0.0000000e+000  0.0000000e+000  0.0000000e+000  0.0000000e+000  0.0000000e+000  9.4239938e-004 
 1.5375061e+000  0.0000000e+000  0.0000000e+000  0.0000000e+000  0.0000000e+000  0.0000000e+000  0.0000000e+000  9.5383712e-004 