Variables = "x","y", "Velocity_x", "Velocity_y", "Velocity_whole value", "Pressure", "Absolute pressure", "Total pressure"
Zone i=42, j=42
 0.0000000e+000  0.0000000e+000  0.0000000e+000  0.0000000e+000  0.0000000e+000  1.7522292e-002  1.7522292e-002  1.7522292e-002 
 6.4191800e-003  0.0000000e+000  0.0000000e+000  0.0000000e+000  0.0000000e+000  1.7537765e-002  1.7537765e-002  1.7537765e-002 
 1.9706905e-002  0.0000000e+000  0.0000000e+000  0.0000000e+000  0.0000000e+000  1.7569793e-002  1.7569793e-002  1.7569793e-002 
 3.3924788e-002  0.0000000e+000  0.0000000e+000  0.0000000e+000  0.0000000e+000  1.7585542e-002  1.7585542e-002  1.7585542e-002 
 4.9137920e-002  0.0000000e+000  0.0000000e+000  0.0000000e+000  0.0000000e+000  1.7564740e-002  1.7564740e-002  1.7564740e-002 
 6.5415949e-002  0.0000000e+000  0.0000000e+000  0.0000000e+000  0.0000000e+000  1.7492920e-002  1.7492920e-002  1.7492920e-002 
 8.2833439e-002  0.0000000e+000  0.0000000e+000  0.0000000e+000  0.0000000e+000  1.7364930e-002  1.7364930e-002  1.7364930e-002 
 1.0147019e-001  0.0000000e+000  0.0000000e+000  0.0000000e+000  0.0000000e+000  1.7182680e-002  1.7182680e-002  1.7182680e-002 
 1.2141150e-001  0.0000000e+000  0.0000000e+000  0.0000000e+000  0.0000000e+000  1.6950879e-002  1.6950879e-002  1.6950879e-002 
 1.4274865e-001  0.0000000e+000  0.0000000e+000  0.0000000e+000  0.0000000e+000  1.6669121e-002  1.6669121e-002  1.6669121e-002 
 1.6557945e-001  0.0000000e+000  0.0000000e+000  0.0000000e+000  0.0000000e+000  1.6330747e-002  1.6330747e-002  1.6330747e-002 
 1.9000840e-001  0.0000000e+000  0.0000000e+000  0.0000000e+000  0.0000000e+000  1.5915018e-002  1.5915018e-002  1.5915018e-002 
 2.1614735e-001  0.0000000e+000  0.0000000e+000  0.0000000e+000  0.0000000e+000  1.5391110e-002  1.5391110e-002  1.5391110e-002 
 2.4411604e-001  0.0000000e+000  0.0000000e+000  0.0000000e+000  0.0000000e+000  1.4724737e-002  1.4724737e-002  1.4724737e-002 
 2.7404255e-001  0.0000000e+000  0.0000000e+000  0.0000000e+000  0.0000000e+000  1.3888777e-002  1.3888777e-002  1.3888777e-002 
 3.0606389e-001  0.0000000e+000  0.0000000e+000  0.0000000e+000  0.0000000e+000  1.2881113e-002  1.2881113e-002  1.2881113e-002 
 3.4032676e-001  0.0000000e+000  0.0000000e+000  0.0000000e+000  0.0000000e+000  1.1757828e-002  1.1757828e-002  1.1757828e-002 
 3.7698799e-001  0.0000000e+000  0.0000000e+000  0.0000000e+000  0.0000000e+000  1.0684021e-002  1.0684021e-002  1.0684021e-002 
 4.1621554e-001  0.0000000e+000  0.0000000e+000  0.0000000e+000  0.0000000e+000  9.9795703e-003  9.9795703e-003  9.9795703e-003 
 4.5818904e-001  0.0000000e+000  0.0000000e+000  0.0000000e+000  0.0000000e+000  1.0139461e-002  1.0139461e-002  1.0139461e-002 
 5.0310063e-001  0.0000000e+000  0.0000000e+000  0.0000000e+000  0.0000000e+000  1.1745460e-002  1.1745460e-002  1.1745460e-002 
 5.4720944e-001  0.0000000e+000  0.0000000e+000  0.0000000e+000  0.0000000e+000  1.4471198e-002  1.4471198e-002  1.4471198e-002 
 5.8762991e-001  0.0000000e+000  0.0000000e+000  0.0000000e+000  0.0000000e+000  1.7134748e-002  1.7134748e-002  1.7134748e-002 
 6.2540615e-001  0.0000000e+000  0.0000000e+000  0.0000000e+000  0.0000000e+000  1.8942064e-002  1.8942064e-002  1.8942064e-002 
 6.6071087e-001  0.0000000e+000  0.0000000e+000  0.0000000e+000  0.0000000e+000  1.9403467e-002  1.9403467e-002  1.9403467e-002 
 6.9370598e-001  0.0000000e+000  0.0000000e+000  0.0000000e+000  0.0000000e+000  1.8597357e-002  1.8597357e-002  1.8597357e-002 
 7.2454250e-001  0.0000000e+000  0.0000000e+000  0.0000000e+000  0.0000000e+000  1.6971134e-002  1.6971134e-002  1.6971134e-002 
 7.5336170e-001  0.0000000e+000  0.0000000e+000  0.0000000e+000  0.0000000e+000  1.5066218e-002  1.5066218e-002  1.5066218e-002 
 7.8029555e-001  0.0000000e+000  0.0000000e+000  0.0000000e+000  0.0000000e+000  1.3291055e-002  1.3291055e-002  1.3291055e-002 
 8.0546743e-001  0.0000000e+000  0.0000000e+000  0.0000000e+000  0.0000000e+000  1.1852308e-002  1.1852308e-002  1.1852308e-002 
 8.2899249e-001  0.0000000e+000  0.0000000e+000  0.0000000e+000  0.0000000e+000  1.0791799e-002  1.0791799e-002  1.0791799e-002 
 8.5097849e-001  0.0000000e+000  0.0000000e+000  0.0000000e+000  0.0000000e+000  1.0062294e-002  1.0062294e-002  1.0062294e-002 
 8.7152624e-001  0.0000000e+000  0.0000000e+000  0.0000000e+000  0.0000000e+000  9.5869955e-003  9.5869955e-003  9.5869955e-003 
 8.9072973e-001  0.0000000e+000  0.0000000e+000  0.0000000e+000  0.0000000e+000  9.2928167e-003  9.2928167e-003  9.2928167e-003 
 9.0867692e-001  0.0000000e+000  0.0000000e+000  0.0000000e+000  0.0000000e+000  9.1230758e-003  9.1230758e-003  9.1230758e-003 
 9.2544997e-001  0.0000000e+000  0.0000000e+000  0.0000000e+000  0.0000000e+000  9.0388805e-003  9.0388805e-003  9.0388805e-003 
 9.4112575e-001  0.0000000e+000  0.0000000e+000  0.0000000e+000  0.0000000e+000  9.0154083e-003  9.0154083e-003  9.0154083e-003 
 9.5577592e-001  0.0000000e+000  0.0000000e+000  0.0000000e+000  0.0000000e+000  9.0358872e-003  9.0358872e-003  9.0358872e-003 
 9.6946770e-001  0.0000000e+000  0.0000000e+000  0.0000000e+000  0.0000000e+000  9.0845097e-003  9.0845097e-003  9.0845097e-003 
 9.8226380e-001  0.0000000e+000  0.0000000e+000  0.0000000e+000  0.0000000e+000  9.1401860e-003  9.1401860e-003  9.1401860e-003 
 9.9422276e-001  0.0000000e+000  0.0000000e+000  0.0000000e+000  0.0000000e+000  9.1817556e-003  9.1817556e-003  9.1817556e-003 
 1.0000000e+000  0.0000000e+000  0.0000000e+000  0.0000000e+000  0.0000000e+000  9.2018377e-003  9.2018377e-003  9.2018377e-003 
 0.0000000e+000  6.4191800e-003  0.0000000e+000  0.0000000e+000  0.0000000e+000  1.7507089e-002  1.7507089e-002  1.7507089e-002 
 6.4191800e-003  6.4191800e-003 -2.5427338e-005  2.4536075e-005  3.5335088e-005  1.7522583e-002  1.7522583e-002  1.7522583e-002 
 1.9706905e-002  6.4191800e-003  1.0873853e-004 -3.3723765e-005  1.1384797e-004  1.7554654e-002  1.7554654e-002  1.7554659e-002 
 3.3924788e-002  6.4191800e-003  4.5067613e-004 -7.3098745e-005  4.5656587e-004  1.7566834e-002  1.7566834e-002  1.7566938e-002 
 4.9137920e-002  6.4191800e-003  9.1551594e-004 -8.5389765e-005  9.1948942e-004  1.7543839e-002  1.7543839e-002  1.7544262e-002 
 6.5415949e-002  6.4191800e-003  1.4138517e-003 -7.8905257e-005  1.4160519e-003  1.7473327e-002  1.7473327e-002  1.7474329e-002 
 8.2833439e-002  6.4191800e-003  1.8579348e-003 -6.1831728e-005  1.8589634e-003  1.7350031e-002  1.7350031e-002  1.7351760e-002 
 1.0147019e-001  6.4191800e-003  2.1756408e-003 -4.1766452e-005  2.1760417e-003  1.7174982e-002  1.7174982e-002  1.7177349e-002 
 1.2141150e-001  6.4191800e-003  2.3221669e-003 -2.4399955e-005  2.3222952e-003  1.6951704e-002  1.6951704e-002  1.6954402e-002 
 1.4274865e-001  6.4191800e-003  2.2781361e-003 -1.5873624e-005  2.2781915e-003  1.6679710e-002  1.6679710e-002  1.6682304e-002 
 1.6557945e-001  6.4191800e-003  2.0335256e-003 -1.2366999e-005  2.0335633e-003  1.6351648e-002  1.6351648e-002  1.6353715e-002 
 1.9000840e-001  6.4191800e-003  1.5581368e-003 -9.8307482e-006  1.5581677e-003  1.5947685e-002  1.5947685e-002  1.5948899e-002 
 2.1614735e-001  6.4191800e-003  7.6892826e-004 -2.2676511e-006  7.6893158e-004  1.5438239e-002  1.5438239e-002  1.5438534e-002 
 2.4411604e-001  6.4191800e-003 -4.8595446e-004  1.5779195e-005  4.8621057e-004  1.4790025e-002  1.4790025e-002  1.4790143e-002 
 2.7404255e-001  6.4191800e-003 -2.4215735e-003  4.8975409e-005  2.4220687e-003  1.3975840e-002  1.3975840e-002  1.3978774e-002 
 3.0606389e-001  6.4191800e-003 -5.2879509e-003  1.0215629e-004  5.2889376e-003  1.2991429e-002  1.2991429e-002  1.3005416e-002 
 3.4032676e-001  6.4191800e-003 -9.3028853e-003  1.7825302e-004  9.3045933e-003  1.1887760e-002  1.1887760e-002  1.1931048e-002 
 3.7698799e-001  6.4191800e-003 -1.4513301e-002  2.7120483e-004  1.4515835e-002  1.0821657e-002  1.0821657e-002  1.0927012e-002 
 4.1621554e-001  6.4191800e-003 -2.0605497e-002  3.6263571e-004  2.0608688e-002  1.0102414e-002  1.0102414e-002  1.0314773e-002 
 4.5818904e-001  6.4191800e-003 -2.6657464e-002  4.1182421e-004  2.6660645e-002  1.0215484e-002  1.0215484e-002  1.0570878e-002 
 5.0310063e-001  6.4191800e-003 -3.0678649e-002  3.0102281e-004  3.0680126e-002  1.1746397e-002  1.1746397e-002  1.2217033e-002 
 5.4720944e-001  6.4191800e-003 -3.0414704e-002  4.1452735e-005  3.0414732e-002  1.4388386e-002  1.4388386e-002  1.4850914e-002 
 5.8762991e-001  6.4191800e-003 -2.5854930e-002 -2.4224351e-004  2.5856065e-002  1.6983062e-002  1.6983062e-002  1.7317330e-002 
 6.2540615e-001  6.4191800e-003 -1.8254550e-002 -4.8040535e-004  1.8260870e-002  1.8748732e-002  1.8748732e-002  1.8915461e-002 
 6.6071087e-001  6.4191800e-003 -9.3925027e-003 -5.6660839e-004  9.4095776e-003  1.9198570e-002  1.9198570e-002  1.9242840e-002 
 6.9370598e-001  6.4191800e-003 -1.1552592e-003 -4.8713919e-004  1.2537657e-003  1.8408895e-002  1.8408895e-002  1.8409681e-002 
 7.2454250e-001  6.4191800e-003  5.1405369e-003 -2.9099136e-004  5.1487666e-003  1.6818475e-002  1.6818475e-002  1.6831730e-002 
 7.5336170e-001  6.4191800e-003  8.9926282e-003 -7.5161915e-005  8.9929421e-003  1.4961688e-002  1.4961688e-002  1.5002124e-002 
 7.8029555e-001  6.4191800e-003  1.0624130e-002  9.4914321e-005  1.0624554e-002  1.3236323e-002  1.3236323e-002  1.3292764e-002 
 8.0546743e-001  6.4191800e-003  1.0628419e-002  1.9337599e-004  1.0630178e-002  1.1841537e-002  1.1841537e-002  1.1898038e-002 
 8.2899249e-001  6.4191800e-003  9.6565839e-003  2.2966199e-004  9.6593145e-003  1.0814535e-002  1.0814535e-002  1.0861186e-002 
 8.5097849e-001  6.4191800e-003  8.2276007e-003  2.2642271e-004  8.2307160e-003  1.0107019e-002  1.0107019e-002  1.0140891e-002 
 8.7152624e-001  6.4191800e-003  6.6792350e-003  2.0428625e-004  6.6823582e-003  9.6438397e-003  9.6438397e-003  9.6661663e-003 
 8.9072973e-001  6.4191800e-003  5.1953485e-003  1.7718955e-004  5.1983693e-003  9.3544899e-003  9.3544899e-003  9.3680015e-003 
 9.0867692e-001  6.4191800e-003  3.8571735e-003  1.5255484e-004  3.8601891e-003  9.1845589e-003  9.1845589e-003  9.1920095e-003 
 9.2544997e-001  6.4191800e-003  2.6914219e-003  1.3231357e-004  2.6946722e-003  9.0966150e-003  9.0966150e-003  9.1002453e-003 
 9.4112575e-001  6.4191800e-003  1.7069051e-003  1.1344498e-004  1.7106709e-003  9.0665780e-003  9.0665780e-003  9.0680411e-003 
 9.5577592e-001  6.4191800e-003  9.1738178e-004  8.8668145e-005  9.2165684e-004  9.0781953e-003  9.0781953e-003  9.0786200e-003 
 9.6946770e-001  6.4191800e-003  3.4751085e-004  4.8316844e-005  3.5085369e-004  9.1167884e-003  9.1167884e-003  9.1168499e-003 
 9.8226380e-001  6.4191800e-003  2.1126580e-005 -1.3885347e-005  2.5281124e-005  9.1649322e-003  9.1649322e-003  9.1649322e-003 
 9.9422276e-001  6.4191800e-003 -5.4715270e-005 -6.6628338e-005  8.6215405e-005  9.2078708e-003  9.2078708e-003  9.2078745e-003 
 1.0000000e+000  6.4191800e-003  0.0000000e+000  0.0000000e+000  0.0000000e+000  9.2286142e-003  9.2286142e-003  9.2286142e-003 
 0.0000000e+000  1.9706905e-002  0.0000000e+000  0.0000000e+000  0.0000000e+000  1.7475618e-002  1.7475618e-002  1.7475618e-002 
 6.4191800e-003  1.9706905e-002  3.1796008e-005 -1.0778684e-004  1.1237878e-004  1.7491154e-002  1.7491154e-002  1.7491160e-002 
 1.9706905e-002  1.9706905e-002  4.4881727e-004 -4.5053242e-004  6.3593744e-004  1.7523315e-002  1.7523315e-002  1.7523518e-002 
 3.3924788e-002  1.9706905e-002  1.2827979e-003 -6.8951945e-004  1.4563679e-003  1.7528107e-002  1.7528107e-002  1.7529167e-002 
 4.9137920e-002  1.9706905e-002  2.3631149e-003 -7.7123055e-004  2.4857812e-003  1.7500576e-002  1.7500576e-002  1.7503666e-002 
 6.5415949e-002  1.9706905e-002  3.5005671e-003 -7.0820027e-004  3.5714868e-003  1.7432768e-002  1.7432768e-002  1.7439146e-002 
 8.2833439e-002  1.9706905e-002  4.4928743e-003 -5.3686276e-004  4.5248359e-003  1.7319191e-002  1.7319191e-002  1.7329428e-002 
 1.0147019e-001  1.9706905e-002  5.1528043e-003 -3.0488099e-004  5.1618163e-003  1.7159047e-002  1.7159047e-002  1.7172368e-002 
 1.2141150e-001  1.9706905e-002  5.3363759e-003 -5.7097153e-005  5.3366814e-003  1.6953412e-002  1.6953412e-002  1.6967652e-002 
 1.4274865e-001  1.9706905e-002  4.9466486e-003  1.7749830e-004  4.9498323e-003  1.6701629e-002  1.6701629e-002  1.6713880e-002 
 1.6557945e-001  1.9706905e-002  3.8983414e-003  4.0578723e-004  3.9194040e-003  1.6394911e-002  1.6394911e-002  1.6402593e-002 
 1.9000840e-001  1.9706905e-002  2.0485320e-003  6.6224602e-004  2.1529174e-003  1.6015306e-002  1.6015306e-002  1.6017623e-002 
 2.1614735e-001  1.9706905e-002 -8.7475323e-004  9.9598989e-004  1.3255901e-003  1.5535795e-002  1.5535795e-002  1.5536673e-002 
 2.4411604e-001  1.9706905e-002 -5.3095170e-003  1.4476167e-003  5.5033229e-003  1.4925171e-002  1.4925171e-002  1.4940314e-002 
 2.7404255e-001  1.9706905e-002 -1.1827148e-002  2.0308476e-003  1.2000240e-002  1.4156061e-002  1.4156061e-002  1.4228065e-002 
 3.0606389e-001  1.9706905e-002 -2.1015130e-002  2.7167122e-003  2.1190003e-002  1.3219785e-002  1.3219785e-002  1.3444293e-002 
 3.4032676e-001  1.9706905e-002 -3.3231623e-002  3.4072460e-003  3.3405840e-002  1.2156719e-002  1.2156719e-002  1.2714694e-002 
 3.7698799e-001  1.9706905e-002 -4.8192251e-002  3.9083413e-003  4.8350472e-002  1.1106565e-002  1.1106565e-002  1.2275449e-002 
 4.1621554e-001  1.9706905e-002 -6.4493768e-002  3.9368887e-003  6.4613819e-002  1.0356700e-002  1.0356700e-002  1.2444173e-002 
 4.5818904e-001  1.9706905e-002 -7.9149015e-002  3.1420668e-003  7.9211354e-002  1.0372852e-002  1.0372852e-002  1.3510072e-002 
 5.0310063e-001  1.9706905e-002 -8.7196983e-002  1.1879050e-003  8.7205075e-002  1.1748337e-002  1.1748337e-002  1.5550700e-002 
 5.4720944e-001  1.9706905e-002 -8.4138036e-002 -1.4756134e-003  8.4150977e-002  1.4216967e-002  1.4216967e-002  1.7757660e-002 
 5.8762991e-001  1.9706905e-002 -7.1144097e-002 -3.9709941e-003  7.1254835e-002  1.6669072e-002  1.6669072e-002  1.9207697e-002 
 6.2540615e-001  1.9706905e-002 -5.1658660e-002 -5.7531903e-003  5.1978037e-002  1.8348536e-002  1.8348536e-002  1.9699393e-002 
 6.6071087e-001  1.9706905e-002 -2.9683271e-002 -6.3587697e-003  3.0356722e-002  1.8774433e-002  1.8774433e-002  1.9235197e-002 
 6.9370598e-001  1.9706905e-002 -9.1458224e-003 -5.7553565e-003  1.0806026e-002  1.8018777e-002  1.8018777e-002  1.8077161e-002 
 7.2454250e-001  1.9706905e-002  7.1814363e-003 -4.2809211e-003  8.3605805e-003  1.6502472e-002  1.6502472e-002  1.6537420e-002 
 7.5336170e-001  1.9706905e-002  1.8052099e-002 -2.4641857e-003  1.8219508e-002  1.4745310e-002  1.4745310e-002  1.4911286e-002 
 7.8029555e-001  1.9706905e-002  2.3687445e-002 -7.7815005e-004  2.3700222e-002  1.3123028e-002  1.3123028e-002  1.3403879e-002 
 8.0546743e-001  1.9706905e-002  2.5176546e-002  5.1194179e-004  2.5181750e-002  1.1819242e-002  1.1819242e-002  1.2136303e-002 
 8.2899249e-001  1.9706905e-002  2.3896096e-002  1.3442046e-003  2.3933874e-002  1.0861601e-002  1.0861601e-002  1.1148016e-002 
 8.5097849e-001  1.9706905e-002  2.1072960e-002  1.7858008e-003  2.1148492e-002  1.0199600e-002  1.0199600e-002  1.0423229e-002 
 8.7152624e-001  1.9706905e-002  1.7598743e-002  1.9511429e-003  1.7706573e-002  9.7615067e-003  9.7615067e-003  9.9182678e-003 
 8.9072973e-001  1.9706905e-002  1.4029322e-002  1.9476416e-003  1.4163869e-002  9.4821528e-003  9.4821528e-003  9.5824599e-003 
 9.0867692e-001  1.9706905e-002  1.0667393e-002  1.8514774e-003  1.0826875e-002  9.3118297e-003  9.3118297e-003  9.3704406e-003 
 9.2544997e-001  1.9706905e-002  7.6611405e-003  1.7011440e-003  7.8477366e-003  9.2161261e-003  9.2161261e-003  9.2469193e-003 
 9.4112575e-001  1.9706905e-002  5.0858730e-003  1.5007902e-003  5.3026858e-003  9.1725001e-003  9.1725001e-003  9.1865594e-003 
 9.5577592e-001  1.9706905e-002  2.9944922e-003  1.2320264e-003  3.2380354e-003  9.1657741e-003  9.1657741e-003  9.1710165e-003 
 9.6946770e-001  1.9706905e-002  1.4315316e-003  8.7460433e-004  1.6775624e-003  9.1836061e-003  9.1836061e-003  9.1850134e-003 
 9.8226380e-001  1.9706905e-002  4.2716588e-004  4.3816466e-004  6.1193050e-004  9.2161568e-003  9.2161568e-003  9.2163440e-003 
 9.9422276e-001  1.9706905e-002  4.6675186e-006  3.5039699e-005  3.5349203e-005  9.2619285e-003  9.2619285e-003  9.2619294e-003 
 1.0000000e+000  1.9706905e-002  0.0000000e+000  0.0000000e+000  0.0000000e+000  9.2840400e-003  9.2840400e-003  9.2840400e-003 
 0.0000000e+000  3.3924788e-002  0.0000000e+000  0.0000000e+000  0.0000000e+000  1.7458467e-002  1.7458467e-002  1.7458467e-002 
 6.4191800e-003  3.3924788e-002  7.1326744e-005 -4.4610124e-004  4.5176744e-004  1.7477952e-002  1.7477952e-002  1.7478054e-002 
 1.9706905e-002  3.3924788e-002  6.9522636e-004 -1.2847704e-003  1.4608131e-003  1.7518288e-002  1.7518288e-002  1.7519355e-002 
 3.3924788e-002  3.3924788e-002  1.8412941e-003 -1.8245060e-003  2.5921392e-003  1.7522773e-002  1.7522773e-002  1.7526133e-002 
 4.9137920e-002  3.3924788e-002  3.2531996e-003 -1.9865565e-003  3.8117862e-003  1.7493205e-002  1.7493205e-002  1.7500469e-002 
 6.5415949e-002  3.3924788e-002  4.6711736e-003 -1.7861497e-003  5.0010192e-003  1.7425606e-002  1.7425606e-002  1.7438112e-002 
 8.2833439e-002  3.3924788e-002  5.8166380e-003 -1.2962479e-003  5.9593236e-003  1.7315900e-002  1.7315900e-002  1.7333657e-002 
 1.0147019e-001  3.3924788e-002  6.4151329e-003 -6.2304770e-004  6.4453175e-003  1.7163953e-002  1.7163953e-002  1.7184723e-002 
 1.2141150e-001  3.3924788e-002  6.2282565e-003  1.2813974e-004  6.2295743e-003  1.6971014e-002  1.6971014e-002  1.6990418e-002 
 1.4274865e-001  3.3924788e-002  5.0545828e-003  8.9506601e-004  5.1332205e-003  1.6735591e-002  1.6735591e-002  1.6748765e-002 
 1.6557945e-001  3.3924788e-002  2.6830090e-003  1.6903444e-003  3.1710884e-003  1.6448941e-002  1.6448941e-002  1.6453968e-002 
 1.9000840e-001  3.3924788e-002 -1.1951978e-003  2.6022547e-003  2.8636039e-003  1.6092831e-002  1.6092831e-002  1.6096931e-002 
 2.1614735e-001  3.3924788e-002 -7.0747188e-003  3.7521266e-003  8.0081271e-003  1.5640248e-002  1.5640248e-002  1.5672313e-002 
 2.4411604e-001  3.3924788e-002 -1.5657205e-002  5.2273450e-003  1.6506763e-002  1.5059039e-002  1.5059039e-002  1.5195276e-002 
 2.7404255e-001  3.3924788e-002 -2.7751381e-002  7.0185000e-003  2.8625136e-002  1.4318014e-002  1.4318014e-002  1.4727713e-002 
 3.0606389e-001  3.3924788e-002 -4.4011313e-002  8.9602955e-003  4.4914171e-002  1.3399923e-002  1.3399923e-002  1.4408564e-002 
 3.4032676e-001  3.3924788e-002 -6.4474307e-002  1.0668255e-002  6.5350957e-002  1.2332026e-002  1.2332026e-002  1.4467400e-002 
 3.7698799e-001  3.3924788e-002 -8.7950274e-002  1.1519136e-002  8.8701420e-002  1.1240591e-002  1.1240591e-002  1.5174562e-002 
 4.1621554e-001  3.3924788e-002 -1.1154263e-001  1.0745561e-002  1.1205903e-001  1.0405833e-002  1.0405833e-002  1.6684445e-002 
 4.5818904e-001  3.3924788e-002 -1.3050032e-001  7.6183937e-003  1.3072251e-001  1.0301976e-002  1.0301976e-002  1.8846164e-002 
 5.0310063e-001  3.3924788e-002 -1.3853890e-001  1.8158784e-003  1.3855080e-001  1.1555716e-002  1.1555716e-002  2.1153878e-002 
 5.4720944e-001  3.3924788e-002 -1.3132723e-001 -5.2819857e-003  1.3143340e-001  1.3937240e-002  1.3937240e-002  2.2574611e-002 
 5.8762991e-001  3.3924788e-002 -1.1175375e-001 -1.1566331e-002  1.1235071e-001  1.6346000e-002  1.6346000e-002  2.2657340e-002 
 6.2540615e-001  3.3924788e-002 -8.4454820e-002 -1.5886841e-002  8.5936069e-002  1.8020544e-002  1.8020544e-002  2.1713048e-002 
 6.6071087e-001  3.3924788e-002 -5.4144874e-002 -1.7396569e-002  5.6870978e-002  1.8461285e-002  1.8461285e-002  2.0078439e-002 
 6.9370598e-001  3.3924788e-002 -2.5353389e-002 -1.6054174e-002  3.0008845e-002  1.7727582e-002  1.7727582e-002  1.8177846e-002 
 7.2454250e-001  3.3924788e-002 -1.4228340e-003 -1.2569102e-002  1.2649378e-002  1.6242435e-002  1.6242435e-002  1.6322438e-002 
 7.5336170e-001  3.3924788e-002  1.5847038e-002 -8.0591924e-003  1.7778616e-002  1.4522813e-002  1.4522813e-002  1.4680853e-002 
 7.8029555e-001  3.3924788e-002  2.6278784e-002 -3.6290630e-003  2.6528185e-002  1.2947762e-002  1.2947762e-002  1.3299635e-002 
 8.0546743e-001  3.3924788e-002  3.0866504e-002  1.4576777e-005  3.0866507e-002  1.1697347e-002  1.1697347e-002  1.2173718e-002 
 8.2899249e-001  3.3924788e-002  3.1155068e-002  2.5966607e-003  3.1263091e-002  1.0792612e-002  1.0792612e-002  1.1281302e-002 
 8.5097849e-001  3.3924788e-002  2.8708054e-002  4.1712313e-003  2.9009508e-002  1.0176056e-002  1.0176056e-002  1.0596832e-002 
 8.7152624e-001  3.3924788e-002  2.4797134e-002  4.9576955e-003  2.5287874e-002  9.7721172e-003  9.7721172e-003  1.0091855e-002 
 8.9072973e-001  3.3924788e-002  2.0313835e-002  5.2045807e-003  2.0969968e-002  9.5151998e-003  9.5151998e-003  9.7350692e-003 
 9.0867692e-001  3.3924788e-002  1.5817000e-002  5.1103621e-003  1.6622072e-002  9.3569914e-003  9.3569914e-003  9.4951382e-003 
 9.2544997e-001  3.3924788e-002  1.1631018e-002  4.7928775e-003  1.2579835e-002  9.2651062e-003  9.2651062e-003  9.3442323e-003 
 9.4112575e-001  3.3924788e-002  7.9426523e-003  4.2916625e-003  9.0279616e-003  9.2192581e-003  9.2192581e-003  9.2600100e-003 
 9.5577592e-001  3.3924788e-002  4.8686014e-003  3.5950076e-003  6.0520540e-003  9.2067802e-003  9.2067802e-003  9.2250938e-003 
 9.6946770e-001  3.3924788e-002  2.4852636e-003  2.6838374e-003  3.6578025e-003  9.2186034e-003  9.2186034e-003  9.2252931e-003 
 9.8226380e-001  3.3924788e-002  8.5195777e-004  1.5841388e-003  1.7987017e-003  9.2519242e-003  9.2519242e-003  9.2535419e-003 
 9.9422276e-001  3.3924788e-002  6.5622989e-005  4.4185299e-004  4.4669950e-004  9.3160896e-003  9.3160896e-003  9.3161892e-003 
 1.0000000e+000  3.3924788e-002  0.0000000e+000  0.0000000e+000  0.0000000e+000  9.3470868e-003  9.3470868e-003  9.3470868e-003 
 0.0000000e+000  4.9137920e-002  0.0000000e+000  0.0000000e+000  0.0000000e+000  1.7475562e-002  1.7475562e-002  1.7475562e-002 
 6.4191800e-003  4.9137920e-002  8.9120505e-005 -9.1876538e-004  9.2307763e-004  1.7497620e-002  1.7497620e-002  1.7498046e-002 
 1.9706905e-002  4.9137920e-002  8.0835662e-004 -2.3894694e-003  2.5224998e-003  1.7543280e-002  1.7543280e-002  1.7546462e-002 
 3.3924788e-002  4.9137920e-002  2.0695750e-003 -3.2515966e-003  3.8543509e-003  1.7547352e-002  1.7547352e-002  1.7554780e-002 
 4.9137920e-002  4.9137920e-002  3.5370856e-003 -3.4354811e-003  4.9308725e-003  1.7514830e-002  1.7514830e-002  1.7526988e-002 
 6.5415949e-002  4.9137920e-002  4.8878444e-003 -2.9735924e-003  5.7212999e-003  1.7444933e-002  1.7444933e-002  1.7461300e-002 
 8.2833439e-002  4.9137920e-002  5.7829861e-003 -1.9823101e-003  6.1133038e-003  1.7335739e-002  1.7335739e-002  1.7354425e-002 
 1.0147019e-001  4.9137920e-002  5.8772820e-003 -6.3068693e-004  5.9110243e-003  1.7188909e-002  1.7188909e-002  1.7206378e-002 
 1.2141150e-001  4.9137920e-002  4.8421095e-003  9.1406063e-004  4.9276296e-003  1.7006863e-002  1.7006863e-002  1.7019004e-002 
 1.4274865e-001  4.9137920e-002  2.3560675e-003  2.5576667e-003  3.4774579e-003  1.6788116e-002  1.6788116e-002  1.6794162e-002 
 1.6557945e-001  4.9137920e-002 -1.9524628e-003  4.3322206e-003  4.7518676e-003  1.6522992e-002  1.6522992e-002  1.6534282e-002 
 1.9000840e-001  4.9137920e-002 -8.5990755e-003  6.3940445e-003  1.0715778e-002  1.6191296e-002  1.6191296e-002  1.6248710e-002 
 2.1614735e-001  4.9137920e-002 -1.8309461e-002  8.9374827e-003  2.0374371e-002  1.5762936e-002  1.5762936e-002  1.5970495e-002 
 2.4411604e-001  4.9137920e-002 -3.1978134e-002  1.2060593e-002  3.4176879e-002  1.5200119e-002  1.5200119e-002  1.5784148e-002 
 2.7404255e-001  4.9137920e-002 -5.0443605e-002  1.5631504e-002  5.2810047e-002  1.4461244e-002  1.4461244e-002  1.5855694e-002 
 3.0606389e-001  4.9137920e-002 -7.4044324e-002  1.9175000e-002  7.6486878e-002  1.3513335e-002  1.3513335e-002  1.6438456e-002 
 3.4032676e-001  4.9137920e-002 -1.0200082e-001  2.1808974e-002  1.0430627e-001  1.2367631e-002  1.2367631e-002  1.7807530e-002 
 3.7698799e-001  4.9137920e-002 -1.3186370e-001  2.2333195e-002  1.3374157e-001  1.1145356e-002  1.1145356e-002  2.0088760e-002 
 4.1621554e-001  4.9137920e-002 -1.5944770e-001  1.9533200e-002  1.6063970e-001  1.0141123e-002  1.0141123e-002  2.3043681e-002 
 4.5818904e-001  4.9137920e-002 -1.7930636e-001  1.2577323e-002  1.7974693e-001  9.8663261e-003  9.8663261e-003  2.6020806e-002 
 5.0310063e-001  4.9137920e-002 -1.8551154e-001  1.5197780e-003  1.8551777e-001  1.0996827e-002  1.0996827e-002  2.8205248e-002 
 5.4720944e-001  4.9137920e-002 -1.7504291e-001 -1.1070725e-002  1.7539266e-001  1.3339649e-002  1.3339649e-002  2.8720940e-002 
 5.8762991e-001  4.9137920e-002 -1.5174772e-001 -2.1867676e-002  1.5331525e-001  1.5772548e-002  1.5772548e-002  2.7525330e-002 
 6.2540615e-001  4.9137920e-002 -1.2027065e-001 -2.9273158e-002  1.2378185e-001  1.7515423e-002  1.7515423e-002  2.5176397e-002 
 6.6071087e-001  4.9137920e-002 -8.5081287e-002 -3.2109302e-002  9.0938620e-002  1.8034430e-002  1.8034430e-002  2.2169346e-002 
 6.9370598e-001  4.9137920e-002 -5.0668832e-002 -3.0260125e-002  5.9016995e-002  1.7361429e-002  1.7361429e-002  1.9102931e-002 
 7.2454250e-001  4.9137920e-002 -2.0648168e-002 -2.4697931e-002  3.2192152e-002  1.5912723e-002  1.5912723e-002  1.6430890e-002 
 7.5336170e-001  4.9137920e-002  2.6676229e-003 -1.7100872e-002  1.7307688e-002  1.4216550e-002  1.4216550e-002  1.4366328e-002 
 7.8029555e-001  4.9137920e-002  1.8508038e-002 -9.2529124e-003  2.0692119e-002  1.2667312e-002  1.2667312e-002  1.2881394e-002 
 8.0546743e-001  4.9137920e-002  2.7453162e-002 -2.4336798e-003  2.7560821e-002  1.1453964e-002  1.1453964e-002  1.1833764e-002 
 8.2899249e-001  4.9137920e-002  3.0882081e-002  2.7358744e-003  3.1003032e-002  1.0597447e-002  1.0597447e-002  1.1078041e-002 
 8.5097849e-001  4.9137920e-002  3.0410785e-002  6.1864601e-003  3.1033661e-002  1.0033107e-002  1.0033107e-002  1.0514651e-002 
 8.7152624e-001  4.9137920e-002  2.7512670e-002  8.1779594e-003  2.8702369e-002  9.6768616e-003  9.6768616e-003  1.0088774e-002 
 8.9072973e-001  4.9137920e-002  2.3332916e-002  9.0843318e-003  2.5038971e-002  9.4581256e-003  9.4581256e-003  9.7716004e-003 
 9.0867692e-001  4.9137920e-002  1.8673642e-002  9.2419796e-003  2.0835524e-002  9.3271025e-003  9.3271025e-003  9.5441621e-003 
 9.2544997e-001  4.9137920e-002  1.4058188e-002  8.8777868e-003  1.6626718e-002  9.2521813e-003  9.2521813e-003  9.3904054e-003 
 9.4112575e-001  4.9137920e-002  9.8177614e-003  8.0980239e-003  1.2726603e-002  9.2151742e-003  9.2151742e-003  9.2961574e-003 
 9.5577592e-001  4.9137920e-002  6.1644963e-003  6.9216196e-003  9.2687560e-003  9.2062019e-003  9.2062019e-003  9.2491563e-003 
 9.6946770e-001  4.9137920e-002  3.2368784e-003  5.3379913e-003  6.2427185e-003  9.2196241e-003  9.2196241e-003  9.2391102e-003 
 9.8226380e-001  4.9137920e-002  1.1535640e-003  3.3691963e-003  3.5612069e-003  9.2587154e-003  9.2587154e-003  9.2650568e-003 
 9.9422276e-001  4.9137920e-002  1.0306776e-004  1.1325231e-003  1.1372033e-003  9.3406932e-003  9.3406932e-003  9.3413396e-003 
 1.0000000e+000  4.9137920e-002  0.0000000e+000  0.0000000e+000  0.0000000e+000  9.3802959e-003  9.3802959e-003  9.3802959e-003 
 0.0000000e+000  6.5415949e-002  0.0000000e+000  0.0000000e+000  0.0000000e+000  1.7543904e-002  1.7543904e-002  1.7543904e-002 
 6.4191800e-003  6.5415949e-002  9.4173112e-005 -1.4562146e-003  1.4592565e-003  1.7564688e-002  1.7564688e-002  1.7565753e-002 
 1.9706905e-002  6.5415949e-002  7.9509016e-004 -3.6049450e-003  3.6915846e-003  1.7607709e-002  1.7607709e-002  1.7614523e-002 
 3.3924788e-002  6.5415949e-002  1.9579257e-003 -4.7355588e-003  5.1243524e-003  1.7607111e-002  1.7607111e-002  1.7620241e-002 
 4.9137920e-002  6.5415949e-002  3.1875342e-003 -4.8121484e-003  5.7721008e-003  1.7568104e-002  1.7568104e-002  1.7584763e-002 
 6.5415949e-002  6.5415949e-002  4.1050762e-003 -3.9029133e-003  5.6643076e-003  1.7492363e-002  1.7492363e-002  1.7508406e-002 
 8.2833439e-002  6.5415949e-002  4.3197060e-003 -2.1762336e-003  4.8369258e-003  1.7380504e-002  1.7380504e-002  1.7392201e-002 
 1.0147019e-001  6.5415949e-002  3.4240894e-003  1.3687287e-004  3.4268240e-003  1.7236395e-002  1.7236395e-002  1.7242266e-002 
 1.2141150e-001  6.5415949e-002  1.0007848e-003  2.8174061e-003  2.9898742e-003  1.7063791e-002  1.7063791e-002  1.7068261e-002 
 1.4274865e-001  6.5415949e-002 -3.4030552e-003  5.7550794e-003  6.6859350e-003  1.6860977e-002  1.6860977e-002  1.6883329e-002 
 1.6557945e-001  6.5415949e-002 -1.0343292e-002  9.0191383e-003  1.3723285e-002  1.6615871e-002  1.6615871e-002  1.6710036e-002 
 1.9000840e-001  6.5415949e-002 -2.0551728e-002  1.2833277e-002  2.4229456e-002  1.6303586e-002  1.6303586e-002  1.6597118e-002 
 2.1614735e-001  6.5415949e-002 -3.4939088e-002  1.7423104e-002  3.9042342e-002  1.5886124e-002  1.5886124e-002  1.6648276e-002 
 2.4411604e-001  6.5415949e-002 -5.4430462e-002  2.2790208e-002  5.9009057e-002  1.5312597e-002  1.5312597e-002  1.7053632e-002 
 2.7404255e-001  6.5415949e-002 -7.9575807e-002  2.8500307e-002  8.4525600e-002  1.4521925e-002  1.4521925e-002  1.8094214e-002 
 3.0606389e-001  6.5415949e-002 -1.0997666e-001  3.3556480e-002  1.1498218e-001  1.3459268e-002  1.3459268e-002  2.0069718e-002 
 3.4032676e-001  6.5415949e-002 -1.4373979e-001  3.6447559e-002  1.4828874e-001  1.2124558e-002  1.2124558e-002  2.3119334e-002 
 3.7698799e-001  6.5415949e-002 -1.7733972e-001  3.5477538e-002  1.8085362e-001  1.0653839e-002  1.0653839e-002  2.7007855e-002 
 4.1621554e-001  6.5415949e-002 -2.0616649e-001  2.9306255e-002  2.0823899e-001  9.3814693e-003  9.3814693e-003  3.1063208e-002 
 4.5818904e-001  6.5415949e-002 -2.2534052e-001  1.7393788e-002  2.2601083e-001  8.8710999e-003  8.8710999e-003  3.4411546e-002 
 5.0310063e-001  6.5415949e-002 -2.3019761e-001  3.2369891e-004  2.3019783e-001  9.8467441e-003  9.8467441e-003  3.6342267e-002 