Variables = "x","y", "Velocity_x", "Velocity_y", "Velocity_whole value", "Pressure", "Absolute pressure", "Total pressure"
Zone i=22, j=42
 0.0000000e+000  0.0000000e+000  0.0000000e+000  0.0000000e+000  0.0000000e+000  1.3915703e-002  1.3915703e-002  1.3915703e-002 
 1.2500005e-002  0.0000000e+000  0.0000000e+000  0.0000000e+000  0.0000000e+000  1.3918045e-002  1.3918045e-002  1.3918045e-002 
 3.7500009e-002  0.0000000e+000  0.0000000e+000  0.0000000e+000  0.0000000e+000  1.3922730e-002  1.3922730e-002  1.3922730e-002 
 6.2500015e-002  0.0000000e+000  0.0000000e+000  0.0000000e+000  0.0000000e+000  1.3931888e-002  1.3931888e-002  1.3931888e-002 
 8.7500006e-002  0.0000000e+000  0.0000000e+000  0.0000000e+000  0.0000000e+000  1.3941051e-002  1.3941051e-002  1.3941051e-002 
 1.1250000e-001  0.0000000e+000  0.0000000e+000  0.0000000e+000  0.0000000e+000  1.3947880e-002  1.3947880e-002  1.3947880e-002 
 1.3750000e-001  0.0000000e+000  0.0000000e+000  0.0000000e+000  0.0000000e+000  1.3950359e-002  1.3950359e-002  1.3950359e-002 
 1.6249999e-001  0.0000000e+000  0.0000000e+000  0.0000000e+000  0.0000000e+000  1.3947692e-002  1.3947692e-002  1.3947692e-002 
 1.8750000e-001  0.0000000e+000  0.0000000e+000  0.0000000e+000  0.0000000e+000  1.3940098e-002  1.3940098e-002  1.3940098e-002 
 2.1250005e-001  0.0000000e+000  0.0000000e+000  0.0000000e+000  0.0000000e+000  1.3928548e-002  1.3928548e-002  1.3928548e-002 
 2.3750010e-001  0.0000000e+000  0.0000000e+000  0.0000000e+000  0.0000000e+000  1.3914485e-002  1.3914485e-002  1.3914485e-002 
 2.6250011e-001  0.0000000e+000  0.0000000e+000  0.0000000e+000  0.0000000e+000  1.3899527e-002  1.3899527e-002  1.3899527e-002 
 2.8750008e-001  0.0000000e+000  0.0000000e+000  0.0000000e+000  0.0000000e+000  1.3885250e-002  1.3885250e-002  1.3885250e-002 
 3.1250015e-001  0.0000000e+000  0.0000000e+000  0.0000000e+000  0.0000000e+000  1.3873023e-002  1.3873023e-002  1.3873023e-002 
 3.3750021e-001  0.0000000e+000  0.0000000e+000  0.0000000e+000  0.0000000e+000  1.3863948e-002  1.3863948e-002  1.3863948e-002 
 3.6250019e-001  0.0000000e+000  0.0000000e+000  0.0000000e+000  0.0000000e+000  1.3858806e-002  1.3858806e-002  1.3858806e-002 
 3.8750026e-001  0.0000000e+000  0.0000000e+000  0.0000000e+000  0.0000000e+000  1.3858021e-002  1.3858021e-002  1.3858021e-002 
 4.1250032e-001  0.0000000e+000  0.0000000e+000  0.0000000e+000  0.0000000e+000  1.3861538e-002  1.3861538e-002  1.3861538e-002 
 4.3750030e-001  0.0000000e+000  0.0000000e+000  0.0000000e+000  0.0000000e+000  1.3868457e-002  1.3868457e-002  1.3868457e-002 
 4.6250033e-001  0.0000000e+000  0.0000000e+000  0.0000000e+000  0.0000000e+000  1.3876487e-002  1.3876487e-002  1.3876487e-002 
 4.8750019e-001  0.0000000e+000  0.0000000e+000  0.0000000e+000  0.0000000e+000  1.3882708e-002  1.3882708e-002  1.3882708e-002 
 5.0000000e-001  0.0000000e+000  0.0000000e+000  0.0000000e+000  0.0000000e+000  1.3885818e-002  1.3885818e-002  1.3885818e-002 
 0.0000000e+000  1.2499990e-002  0.0000000e+000  0.0000000e+000  0.0000000e+000  1.3913237e-002  1.3913237e-002  1.3913237e-002 
 1.2500005e-002  1.2499990e-002 -1.8625275e-005  1.8188874e-005  2.6033364e-005  1.3915625e-002  1.3915625e-002  1.3915625e-002 
 3.7500009e-002  1.2499990e-002 -2.4152652e-005  1.1001256e-005  2.6540125e-005  1.3920400e-002  1.3920400e-002  1.3920400e-002 
 6.2500015e-002  1.2499990e-002  1.9885127e-005 -3.1802501e-006  2.0137832e-005  1.3928539e-002  1.3928539e-002  1.3928539e-002 
 8.7500006e-002  1.2499990e-002  1.2030006e-004 -1.6958858e-005  1.2148954e-004  1.3936706e-002  1.3936706e-002  1.3936713e-002 
 1.1250000e-001  1.2499990e-002  2.6547431e-004 -2.5978747e-005  2.6674240e-004  1.3942768e-002  1.3942768e-002  1.3942803e-002 
 1.3750000e-001  1.2499990e-002  4.3553332e-004 -2.9541268e-005  4.3653403e-004  1.3944970e-002  1.3944970e-002  1.3945065e-002 
 1.6249999e-001  1.2499990e-002  6.0694275e-004 -2.8114337e-005  6.0759357e-004  1.3942617e-002  1.3942617e-002  1.3942801e-002 
 1.8750000e-001  1.2499990e-002  7.5768604e-004 -2.2706621e-005  7.5802620e-004  1.3935899e-002  1.3935899e-002  1.3936186e-002 
 2.1250005e-001  1.2499990e-002  8.7025989e-004 -1.4647962e-005  8.7038317e-004  1.3925678e-002  1.3925678e-002  1.3926057e-002 
 2.3750010e-001  1.2499990e-002  9.3325292e-004 -5.3456183e-006  9.3326822e-004  1.3913233e-002  1.3913233e-002  1.3913669e-002 
 2.6250011e-001  1.2499990e-002  9.4172481e-004  3.9686056e-006  9.4173319e-004  1.3900003e-002  1.3900003e-002  1.3900447e-002 
 2.8750008e-001  1.2499990e-002  8.9668477e-004  1.2365819e-005  8.9677004e-004  1.3887388e-002  1.3887388e-002  1.3887790e-002 
 3.1250015e-001  1.2499990e-002  8.0403785e-004  1.9223769e-005  8.0426765e-004  1.3876592e-002  1.3876592e-002  1.3876915e-002 
 3.3750021e-001  1.2499990e-002  6.7354226e-004  2.4138724e-005  6.7397469e-004  1.3868579e-002  1.3868579e-002  1.3868806e-002 
 3.6250019e-001  1.2499990e-002  5.1803549e-004  2.6678832e-005  5.1872199e-004  1.3864019e-002  1.3864019e-002  1.3864153e-002 
 3.8750026e-001  1.2499990e-002  3.5323825e-004  2.6172298e-005  3.5420651e-004  1.3863272e-002  1.3863272e-002  1.3863334e-002 
 4.1250032e-001  1.2499990e-002  1.9782486e-004  2.1550502e-005  1.9899523e-004  1.3866286e-002  1.3866286e-002  1.3866305e-002 
 4.3750030e-001  1.2499990e-002  7.2485491e-005  1.1506549e-005  7.3393101e-005  1.3872286e-002  1.3872286e-002  1.3872289e-002 
 4.6250033e-001  1.2499990e-002 -3.9923916e-006 -4.4998296e-006  6.0156176e-006  1.3879450e-002  1.3879450e-002  1.3879450e-002 
 4.8750019e-001  1.2499990e-002 -1.9001789e-005 -1.8669565e-005  2.6638705e-005  1.3885834e-002  1.3885834e-002  1.3885834e-002 
 5.0000000e-001  1.2499990e-002  0.0000000e+000  0.0000000e+000  0.0000000e+000  1.3889026e-002  1.3889026e-002  1.3889026e-002 
 0.0000000e+000  3.7499964e-002  0.0000000e+000  0.0000000e+000  0.0000000e+000  1.3908308e-002  1.3908308e-002  1.3908308e-002 
 1.2500005e-002  3.7499964e-002 -1.4251566e-005  2.4130586e-005  2.8024851e-005  1.3910786e-002  1.3910786e-002  1.3910786e-002 
 3.7500009e-002  3.7499964e-002  3.3462067e-005 -4.0527597e-005  5.2556599e-005  1.3915742e-002  1.3915742e-002  1.3915743e-002 
 6.2500015e-002  3.7499964e-002  2.0038585e-004 -1.4116270e-004  2.4511508e-004  1.3921842e-002  1.3921842e-002  1.3921872e-002 
 8.7500006e-002  3.7499964e-002  4.8794100e-004 -2.3618988e-004  5.4209970e-004  1.3928018e-002  1.3928018e-002  1.3928165e-002 
 1.1250000e-001  3.7499964e-002  8.7091787e-004 -3.0091230e-004  9.2143699e-004  1.3932544e-002  1.3932544e-002  1.3932968e-002 
 1.3750000e-001  3.7499964e-002  1.3042000e-003 -3.2451467e-004  1.3439670e-003  1.3934193e-002  1.3934193e-002  1.3935097e-002 
 1.6249999e-001  3.7499964e-002  1.7346229e-003 -3.0567416e-004  1.7613498e-003  1.3932468e-002  1.3932468e-002  1.3934020e-002 
 1.8750000e-001  3.7499964e-002  2.1113432e-003 -2.4979288e-004  2.1260683e-003  1.3927503e-002  1.3927503e-002  1.3929764e-002 
 2.1250005e-001  3.7499964e-002  2.3929537e-003 -1.6659305e-004  2.3987456e-003  1.3919937e-002  1.3919937e-002  1.3922814e-002 
 2.3750010e-001  3.7499964e-002  2.5515142e-003 -6.7795845e-005  2.5524148e-003  1.3910728e-002  1.3910728e-002  1.3913985e-002 
 2.6250011e-001  3.7499964e-002  2.5740184e-003  3.4904195e-005  2.5742550e-003  1.3900956e-002  1.3900956e-002  1.3904270e-002 
 2.8750008e-001  3.7499964e-002  2.4617747e-003  1.3118856e-004  2.4652679e-003  1.3891662e-002  1.3891662e-002  1.3894700e-002 
 3.1250015e-001  3.7499964e-002  2.2284156e-003  2.1265278e-004  2.2385390e-003  1.3883729e-002  1.3883729e-002  1.3886235e-002 
 3.3750021e-001  3.7499964e-002  1.8977306e-003  2.7262780e-004  1.9172134e-003  1.3877840e-002  1.3877840e-002  1.3879677e-002 
 3.6250019e-001  3.7499964e-002  1.5016146e-003  3.0549202e-004  1.5323745e-003  1.3874444e-002  1.3874444e-002  1.3875619e-002 
 3.8750026e-001  3.7499964e-002  1.0787416e-003  3.0610076e-004  1.1213301e-003  1.3873774e-002  1.3873774e-002  1.3874402e-002 
 4.1250032e-001  3.7499964e-002  6.7312643e-004  2.7012176e-004  7.2530337e-004  1.3875782e-002  1.3875782e-002  1.3876044e-002 
 4.3750030e-001  3.7499964e-002  3.3045877e-004  1.9641583e-004  3.8442446e-004  1.3879946e-002  1.3879946e-002  1.3880019e-002 
 4.6250033e-001  3.7499964e-002  9.1796341e-005  9.2746835e-005  1.3049346e-004  1.3885377e-002  1.3885377e-002  1.3885385e-002 
 4.8750019e-001  3.7499964e-002 -7.3951173e-006 -5.6694657e-006  9.3182944e-006  1.3892086e-002  1.3892086e-002  1.3892086e-002 
 5.0000000e-001  3.7499964e-002  0.0000000e+000  0.0000000e+000  0.0000000e+000  1.3895441e-002  1.3895441e-002  1.3895441e-002 
 0.0000000e+000  6.2499940e-002  0.0000000e+000  0.0000000e+000  0.0000000e+000  1.3899190e-002  1.3899190e-002  1.3899190e-002 
 1.2500005e-002  6.2499940e-002 -4.0755417e-006 -1.0866705e-005  1.1605831e-005  1.3902830e-002  1.3902830e-002  1.3902830e-002 
 3.7500009e-002  6.2499940e-002  1.2322658e-004 -2.0142825e-004  2.3613160e-004  1.3910108e-002  1.3910108e-002  1.3910136e-002 
 6.2500015e-002  6.2499940e-002  4.3612678e-004 -4.5090908e-004  6.2731619e-004  1.3916761e-002  1.3916761e-002  1.3916957e-002 
 8.7500006e-002  6.2499940e-002  9.1550319e-004 -6.7707855e-004  1.1386753e-003  1.3922999e-002  1.3922999e-002  1.3923647e-002 
 1.1250000e-001  6.2499940e-002  1.5192168e-003 -8.2781992e-004  1.7301172e-003  1.3927516e-002  1.3927516e-002  1.3929012e-002 
 1.3750000e-001  6.2499940e-002  2.1817042e-003 -8.7659934e-004  2.3512251e-003  1.3929276e-002  1.3929276e-002  1.3932040e-002 
 1.6249999e-001  6.2499940e-002  2.8278411e-003 -8.1892865e-004  2.9440329e-003  1.3927918e-002  1.3927918e-002  1.3932251e-002 
 1.8750000e-001  6.2499940e-002  3.3865881e-003 -6.6726102e-004  3.4516975e-003  1.3923647e-002  1.3923647e-002  1.3929604e-002 
 2.1250005e-001  6.2499940e-002  3.8004157e-003 -4.4526742e-004  3.8264112e-003  1.3917096e-002  1.3917096e-002  1.3924417e-002 
 2.3750010e-001  6.2499940e-002  4.0306379e-003 -1.8212612e-004  4.0347506e-003  1.3909169e-002  1.3909169e-002  1.3917309e-002 
 2.6250011e-001  6.2499940e-002  4.0593897e-003  9.2391921e-005  4.0604412e-003  1.3900843e-002  1.3900843e-002  1.3909087e-002 
 2.8750008e-001  6.2499940e-002  3.8887507e-003  3.5133897e-004  3.9045897e-003  1.3893021e-002  1.3893021e-002  1.3900644e-002 
 3.1250015e-001  6.2499940e-002  3.5382148e-003  5.7215750e-004  3.5841775e-003  1.3886434e-002  1.3886434e-002  1.3892857e-002 
 3.3750021e-001  6.2499940e-002  3.0416430e-003  7.3664379e-004  3.1295745e-003  1.3881614e-002  1.3881614e-002  1.3886510e-002 
 3.6250019e-001  6.2499940e-002  2.4443516e-003  8.2996103e-004  2.5814124e-003  1.3878909e-002  1.3878909e-002  1.3882241e-002 
 3.8750026e-001  6.2499940e-002  1.8008818e-003  8.3983509e-004  1.9870829e-003  1.3878522e-002  1.3878522e-002  1.3880496e-002 
 4.1250032e-001  6.2499940e-002  1.1725216e-003  7.5763097e-004  1.3959984e-003  1.3880477e-002  1.3880477e-002  1.3881451e-002 
 4.3750030e-001  6.2499940e-002  6.2245160e-004  5.8321544e-004  8.5298665e-004  1.3884461e-002  1.3884461e-002  1.3884825e-002 
 4.6250033e-001  6.2499940e-002  2.1138682e-004  3.3432976e-004  3.9555124e-004  1.3890309e-002  1.3890309e-002  1.3890387e-002 
 4.8750019e-001  6.2499940e-002  8.2121232e-006  6.9380047e-005  6.9864371e-005  1.3899825e-002  1.3899825e-002  1.3899827e-002 
 5.0000000e-001  6.2499940e-002  0.0000000e+000  0.0000000e+000  0.0000000e+000  1.3904582e-002  1.3904582e-002  1.3904582e-002 
 0.0000000e+000  8.7499917e-002  0.0000000e+000  0.0000000e+000  0.0000000e+000  1.3887325e-002  1.3887325e-002  1.3887325e-002 
 1.2500005e-002  8.7499917e-002  3.7546661e-006 -9.4252027e-005  9.4326781e-005  1.3892739e-002  1.3892739e-002  1.3892744e-002 
 3.7500009e-002  8.7499917e-002  2.1987071e-004 -4.8363151e-004  5.3126505e-004  1.3903567e-002  1.3903567e-002  1.3903708e-002 
 6.2500015e-002  8.7499917e-002  6.9568626e-004 -9.3365973e-004  1.1643453e-003  1.3911942e-002  1.3911942e-002  1.3912620e-002 
 8.7500006e-002  8.7499917e-002  1.3815900e-003 -1.3239360e-003  1.9135302e-003  1.3919229e-002  1.3919229e-002  1.3921060e-002 
 1.1250000e-001  8.7499917e-002  2.2126606e-003 -1.5733171e-003  2.7149941e-003  1.3924386e-002  1.3924386e-002  1.3928072e-002 
 1.3750000e-001  8.7499917e-002  3.1007051e-003 -1.6393648e-003  3.5074048e-003  1.3926459e-002  1.3926459e-002  1.3932610e-002 
 1.6249999e-001  8.7499917e-002  3.9494764e-003 -1.5161368e-003  4.2304886e-003  1.3925237e-002  1.3925237e-002  1.3934185e-002 
 1.8750000e-001  8.7499917e-002  4.6708863e-003 -1.2266537e-003  4.8292708e-003  1.3921079e-002  1.3921079e-002  1.3932740e-002 
 2.1250005e-001  8.7499917e-002  5.1956573e-003 -8.1318378e-004  5.2589090e-003  1.3914747e-002  1.3914747e-002  1.3928575e-002 
 2.3750010e-001  8.7499917e-002  5.4788296e-003 -3.2740310e-004  5.4886034e-003  1.3907214e-002  1.3907214e-002  1.3922276e-002 
 2.6250011e-001  8.7499917e-002  5.5012172e-003  1.7802889e-004  5.5040973e-003  1.3899465e-002  1.3899465e-002  1.3914613e-002 
 2.8750008e-001  8.7499917e-002  5.2676857e-003  6.5524480e-004  5.3082821e-003  1.3892352e-002  1.3892352e-002  1.3906441e-002 
 3.1250015e-001  8.7499917e-002  4.8037465e-003  1.0639612e-003  4.9201618e-003  1.3886510e-002  1.3886510e-002  1.3898615e-002 
 3.3750021e-001  8.7499917e-002  4.1517019e-003  1.3716087e-003  4.3724068e-003  1.3882372e-002  1.3882372e-002  1.3891931e-002 
 3.6250019e-001  8.7499917e-002  3.3671684e-003  1.5519579e-003  3.7076133e-003  1.3880205e-002  1.3880205e-002  1.3887079e-002 
 3.8750026e-001  8.7499917e-002  2.5164846e-003  1.5839601e-003  2.9734869e-003  1.3880210e-002  1.3880210e-002  1.3884631e-002 
 4.1250032e-001  8.7499917e-002  1.6742449e-003  1.4531115e-003  2.2168963e-003  1.3882504e-002  1.3882504e-002  1.3884962e-002 
 4.3750030e-001  8.7499917e-002  9.1863534e-004  1.1576244e-003  1.4778313e-003  1.3886943e-002  1.3886943e-002  1.3888036e-002 
 4.6250033e-001  8.7499917e-002  3.3114935e-004  7.1951060e-004  7.9205772e-004  1.3894022e-002  1.3894022e-002  1.3894335e-002 
 4.8750019e-001  8.7499917e-002  2.1125428e-005  2.0794111e-004  2.0901146e-004  1.3907316e-002  1.3907316e-002  1.3907338e-002 
 5.0000000e-001  8.7499917e-002  0.0000000e+000  0.0000000e+000  0.0000000e+000  1.3913963e-002  1.3913963e-002  1.3913963e-002 
 0.0000000e+000  1.1249990e-001  0.0000000e+000  0.0000000e+000  0.0000000e+000  1.3874150e-002  1.3874150e-002  1.3874150e-002 
 1.2500005e-002  1.1249990e-001  9.4400866e-006 -2.2856389e-004  2.2875876e-004  1.3881733e-002  1.3881733e-002  1.3881759e-002 
 3.7500009e-002  1.1249990e-001  3.2187116e-004 -9.0002321e-004  9.5584663e-004  1.3896898e-002  1.3896898e-002  1.3897356e-002 
 6.2500015e-002  1.1249990e-001  9.8043575e-004 -1.6085039e-003  1.8837566e-003  1.3907669e-002  1.3907669e-002  1.3909443e-002 
 8.7500006e-002  1.1249990e-001  1.8976438e-003 -2.1950703e-003  2.9016177e-003  1.3916516e-002  1.3916516e-002  1.3920725e-002 
 1.1250000e-001  1.1249990e-001  2.9784068e-003 -2.5494366e-003  3.9205272e-003  1.3922531e-002  1.3922531e-002  1.3930216e-002 
 1.3750000e-001  1.1249990e-001  4.1061854e-003 -2.6156413e-003  4.8685046e-003  1.3924791e-002  1.3924791e-002  1.3936643e-002 
 1.6249999e-001  1.1249990e-001  5.1607629e-003 -2.3908385e-003  5.6876694e-003  1.3923283e-002  1.3923283e-002  1.3939458e-002 
 1.8750000e-001  1.1249990e-001  6.0373545e-003 -1.9144716e-003  6.3336287e-003  1.3918619e-002  1.3918619e-002  1.3938676e-002 
 2.1250005e-001  1.1249990e-001  6.6577280e-003 -1.2534288e-003  6.7746900e-003  1.3911788e-002  1.3911788e-002  1.3934736e-002 
 2.3750010e-001  1.1249990e-001  6.9747106e-003 -4.8715205e-004  6.9917026e-003  1.3903927e-002  1.3903927e-002  1.3928369e-002 
 2.6250011e-001  1.1249990e-001  6.9718892e-003  3.0467098e-004  6.9785430e-003  1.3896102e-002  1.3896102e-002  1.3920452e-002 
 2.8750008e-001  1.1249990e-001  6.6600773e-003  1.0503380e-003  6.7423913e-003  1.3889153e-002  1.3889153e-002  1.3911883e-002 
 3.1250015e-001  1.1249990e-001  6.0724663e-003  1.6898797e-003  6.3032168e-003  1.3883653e-002  1.3883653e-002  1.3903518e-002 
 3.3750021e-001  1.1249990e-001  5.2598780e-003  2.1750196e-003  5.6918385e-003  1.3879933e-002  1.3879933e-002  1.3896132e-002 
 3.6250019e-001  1.1249990e-001  4.2869039e-003  2.4670630e-003  4.9461038e-003  1.3878189e-002  1.3878189e-002  1.3890421e-002 
 3.8750026e-001  1.1249990e-001  3.2296428e-003  2.5348626e-003  4.1056206e-003  1.3878605e-002  1.3878605e-002  1.3887034e-002 
 4.1250032e-001  1.1249990e-001  2.1740308e-003  2.3556550e-003  3.2055452e-003  1.3881374e-002  1.3881374e-002  1.3886512e-002 
 4.3750030e-001  1.1249990e-001  1.2123724e-003  1.9213822e-003  2.2719058e-003  1.3886492e-002  1.3886492e-002  1.3889072e-002 
 4.6250033e-001  1.1249990e-001  4.4771642e-004  1.2501330e-003  1.3278865e-003  1.3895046e-002  1.3895046e-002  1.3895928e-002 
 4.8750019e-001  1.1249990e-001  3.2162836e-005  4.0919715e-004  4.1045921e-004  1.3912363e-002  1.3912363e-002  1.3912447e-002 
 5.0000000e-001  1.1249990e-001  0.0000000e+000  0.0000000e+000  0.0000000e+000  1.3921021e-002  1.3921021e-002  1.3921021e-002 
 0.0000000e+000  1.3749990e-001  0.0000000e+000  0.0000000e+000  0.0000000e+000  1.3860132e-002  1.3860132e-002  1.3860132e-002 
 1.2500005e-002  1.3749990e-001  1.4309308e-005 -4.1673583e-004  4.1698143e-004  1.3870304e-002  1.3870304e-002  1.3870390e-002 
 3.7500009e-002  1.3749990e-001  4.3589791e-004 -1.4671105e-003  1.5304966e-003  1.3890647e-002  1.3890647e-002  1.3891819e-002 
 6.2500015e-002  1.3749990e-001  1.3062400e-003 -2.5030142e-003  2.8233568e-003  1.3904399e-002  1.3904399e-002  1.3908385e-002 
 8.7500006e-002  1.3749990e-001  2.4913230e-003 -3.3216397e-003  4.1521057e-003  1.3915128e-002  1.3915128e-002  1.3923748e-002 
 1.1250000e-001  1.3749990e-001  3.8564489e-003 -3.7830882e-003  5.4022176e-003  1.3921956e-002  1.3921956e-002  1.3936548e-002 
 1.3750000e-001  1.3749990e-001  5.2486886e-003 -3.8222256e-003  6.4929300e-003  1.3923977e-002  1.3923977e-002  1.3945055e-002 
 1.6249999e-001  1.3749990e-001  6.5192748e-003 -3.4471885e-003  7.3745544e-003  1.3921469e-002  1.3921469e-002  1.3948661e-002 
 1.8750000e-001  1.3749990e-001  7.5462866e-003 -2.7229837e-003  8.0225356e-003  1.3915435e-002  1.3915435e-002  1.3947616e-002 
 2.1250005e-001  1.3749990e-001  8.2454318e-003 -1.7494927e-003  8.4289899e-003  1.3907213e-002  1.3907213e-002  1.3942737e-002 
 2.3750010e-001  1.3749990e-001  8.5720057e-003 -6.4029440e-004  8.5958857e-003  1.3898199e-002  1.3898199e-002  1.3935144e-002 
 2.6250011e-001  1.3749990e-001  8.5173892e-003  4.9392506e-004  8.5316990e-003  1.3889601e-002  1.3889601e-002  1.3925996e-002 
 2.8750008e-001  1.3749990e-001  8.1025129e-003  1.5557171e-003  8.2505131e-003  1.3882275e-002  1.3882275e-002  1.3916310e-002 
 3.1250015e-001  1.3749990e-001  7.3709255e-003  2.4648821e-003  7.7721416e-003  1.3876729e-002  1.3876729e-002  1.3906932e-002 
 3.3750021e-001  1.3749990e-001  6.3830228e-003  3.1575153e-003  7.1212980e-003  1.3873188e-002  1.3873188e-002  1.3898544e-002 
 3.6250019e-001  1.3749990e-001  5.2120662e-003  3.5824038e-003  6.3244961e-003  1.3871751e-002  1.3871751e-002  1.3891750e-002 
 3.8750026e-001  1.3749990e-001  3.9427760e-003  3.6972985e-003  5.4051364e-003  1.3872568e-002  1.3872568e-002  1.3887175e-002 
 4.1250032e-001  1.3749990e-001  2.6711354e-003  3.4684399e-003  4.3777893e-003  1.3875870e-002  1.3875870e-002  1.3885452e-002 
 4.3750030e-001  1.3749990e-001  1.5026990e-003  2.8760568e-003  3.2449665e-003  1.3881761e-002  1.3881761e-002  1.3887025e-002 
 4.6250033e-001  1.3749990e-001  5.6168059e-004  1.9256276e-003  2.0058730e-003  1.3891868e-002  1.3891868e-002  1.3893880e-002 
 4.8750019e-001  1.3749990e-001  4.2408847e-005  6.7117449e-004  6.7251298e-004  1.3913224e-002  1.3913224e-002  1.3913450e-002 
 5.0000000e-001  1.3749990e-001  0.0000000e+000  0.0000000e+000  0.0000000e+000  1.3923901e-002  1.3923901e-002  1.3923901e-002 
 0.0000000e+000  1.6249985e-001  0.0000000e+000  0.0000000e+000  0.0000000e+000  1.3845302e-002  1.3845302e-002  1.3845302e-002 
 1.2500005e-002  1.6249985e-001  1.9787523e-005 -6.6653767e-004  6.6683133e-004  1.3858608e-002  1.3858608e-002  1.3858831e-002 
 3.7500009e-002  1.6249985e-001  5.7221059e-004 -2.2109267e-003  2.2837736e-003  1.3885220e-002  1.3885220e-002  1.3887827e-002 
 6.2500015e-002  1.6249985e-001  1.6964563e-003 -3.6559235e-003  4.0303525e-003  1.3902491e-002  1.3902491e-002  1.3910613e-002 
 8.7500006e-002  1.6249985e-001  3.1987603e-003 -4.7451840e-003  5.7226601e-003  1.3915192e-002  1.3915192e-002  1.3931567e-002 
 1.1250000e-001  1.6249985e-001  4.8922705e-003 -5.3085550e-003  7.2190766e-003  1.3922428e-002  1.3922428e-002  1.3948485e-002 
 1.3750000e-001  1.6249985e-001  6.5778517e-003 -5.2790730e-003  8.4342603e-003  1.3923368e-002  1.3923368e-002  1.3958937e-002 
 1.6249999e-001  1.6249985e-001  8.0734668e-003 -4.6881535e-003  9.3359333e-003  1.3918758e-002  1.3918758e-002  1.3962338e-002 
 1.8750000e-001  1.6249985e-001  9.2407074e-003 -3.6396871e-003  9.9316658e-003  1.3910176e-002  1.3910176e-002  1.3959495e-002 
 2.1250005e-001  1.6249985e-001  9.9937497e-003 -2.2777324e-003  1.0250029e-002  1.3899476e-002  1.3899476e-002  1.3952008e-002 
 2.3750010e-001  1.6249985e-001  1.0296706e-002 -7.5747783e-004  1.0324530e-002  1.3888411e-002  1.3888411e-002  1.3941709e-002 
 2.6250011e-001  1.6249985e-001  1.0154968e-002  7.7574019e-004  1.0184554e-002  1.3878357e-002  1.3878357e-002  1.3930219e-002 
 2.8750008e-001  1.6249985e-001  9.6045248e-003  2.1980929e-003  9.8528424e-003  1.3870189e-002  1.3870189e-002  1.3918729e-002 
 3.1250015e-001  1.6249985e-001  8.7024178e-003  3.4102476e-003  9.3467571e-003  1.3864315e-002  1.3864315e-002  1.3907996e-002 
 3.3750021e-001  1.6249985e-001  7.5199008e-003  4.3342947e-003  8.6795744e-003  1.3860814e-002  1.3860814e-002  1.3898482e-002 
 3.6250019e-001  1.6249985e-001  6.1387653e-003  4.9075498e-003  7.8592924e-003  1.3859643e-002  1.3859643e-002  1.3890527e-002 
 3.8750026e-001  1.6249985e-001  4.6512266e-003  5.0763134e-003  6.8849740e-003  1.3860871e-002  1.3860871e-002  1.3884572e-002 
 4.1250032e-001  1.6249985e-001  3.1618499e-003  4.7931634e-003  5.7420996e-003  1.3864742e-002  1.3864742e-002  1.3881228e-002 
 4.3750030e-001  1.6249985e-001  1.7879419e-003  4.0210341e-003  4.4006193e-003  1.3871426e-002  1.3871426e-002  1.3881109e-002 
 4.6250033e-001  1.6249985e-001  6.7330134e-004  2.7441320e-003  2.8255256e-003  1.3883060e-002  1.3883060e-002  1.3887051e-002 
 4.8750019e-001  1.6249985e-001  5.2462845e-005  9.9250011e-004  9.9388568e-004  1.3908348e-002  1.3908348e-002  1.3908842e-002 
 5.0000000e-001  1.6249985e-001  0.0000000e+000  0.0000000e+000  0.0000000e+000  1.3920992e-002  1.3920992e-002  1.3920992e-002 
 0.0000000e+000  1.8749979e-001  0.0000000e+000  0.0000000e+000  0.0000000e+000  1.3829644e-002  1.3829644e-002  1.3829644e-002 
 1.2500005e-002  1.8749979e-001  2.7330478e-005 -9.9195668e-004  9.9233317e-004  1.3846803e-002  1.3846803e-002  1.3847295e-002 
 3.7500009e-002  1.8749979e-001  7.4275327e-004 -3.1702265e-003  3.2560742e-003  1.3881119e-002  1.3881119e-002  1.3886420e-002 
 6.2500015e-002  1.8749979e-001  2.1778611e-003 -5.1196385e-003  5.5636121e-003  1.3902384e-002  1.3902384e-002  1.3917861e-002 
 8.7500006e-002  1.8749979e-001  4.0586945e-003 -6.5175346e-003  7.6779723e-003  1.3916796e-002  1.3916796e-002  1.3946272e-002 
 1.1250000e-001  1.8749979e-001  6.1295386e-003 -7.1644261e-003  9.4286930e-003  1.3923509e-002  1.3923509e-002  1.3967959e-002 
 1.3750000e-001  1.8749979e-001  8.1342254e-003 -7.0039621e-003  1.0734109e-002  1.3921934e-002  1.3921934e-002  1.3979545e-002 
 1.6249999e-001  1.8749979e-001  9.8542525e-003 -6.1093699e-003  1.1594425e-002  1.3913577e-002  1.3913577e-002  1.3980793e-002 
 1.8750000e-001  1.8749979e-001  1.1138383e-002 -4.6418337e-003  1.2066905e-002  1.3900877e-002  1.3900877e-002  1.3973682e-002 
 2.1250005e-001  1.8749979e-001  1.1906925e-002 -2.8036104e-003  1.2232542e-002  1.3886392e-002  1.3886392e-002  1.3961210e-002 
 2.3750010e-001  1.8749979e-001  1.2141414e-002 -7.9951173e-004  1.2167710e-002  1.3872319e-002  1.3872319e-002  1.3946345e-002 
 2.6250011e-001  1.8749979e-001  1.1868775e-002  1.1878979e-003  1.1928073e-002  1.3860206e-002  1.3860206e-002  1.3931345e-002 
 2.8750008e-001  1.8749979e-001  1.1145270e-002  3.0096173e-003  1.1544473e-002  1.3850888e-002  1.3850888e-002  1.3917525e-002 
 3.1250015e-001  1.8749979e-001  1.0044264e-002  4.5503173e-003  1.1026904e-002  1.3844593e-002  1.3844593e-002  1.3905390e-002 
 3.3750021e-001  1.8749979e-001  8.6486032e-003  5.7214373e-003  1.0369821e-002  1.3841170e-002  1.3841170e-002  1.3894936e-002 
 3.6250019e-001  1.8749979e-001  7.0478027e-003  6.4511276e-003  9.5545053e-003  1.3840361e-002  1.3840361e-002  1.3886006e-002 
 3.8750026e-001  1.8749979e-001  5.3398754e-003  6.6745728e-003  8.5477596e-003  1.3842106e-002  1.3842106e-002  1.3878638e-002 
 4.1250032e-001  1.8749979e-001  3.6358752e-003  6.3283755e-003  7.2984877e-003  1.3846608e-002  1.3846608e-002  1.3873242e-002 
 4.3750030e-001  1.8749979e-001  2.0625868e-003  5.3527169e-003  5.7363613e-003  1.3854086e-002  1.3854086e-002  1.3870539e-002 
 4.6250033e-001  1.8749979e-001  7.8088307e-004  3.7020745e-003  3.7835345e-003  1.3867157e-002  1.3867157e-002  1.3874314e-002 
 4.8750019e-001  1.8749979e-001  6.2378349e-005  1.3718570e-003  1.3732745e-003  1.3896172e-002  1.3896172e-002  1.3897114e-002 
 5.0000000e-001  1.8749979e-001  0.0000000e+000  0.0000000e+000  0.0000000e+000  1.3910679e-002  1.3910679e-002  1.3910679e-002 
 0.0000000e+000  2.1249980e-001  0.0000000e+000  0.0000000e+000  0.0000000e+000  1.3813395e-002  1.3813395e-002  1.3813395e-002 
 1.2500005e-002  2.1249980e-001  3.8571983e-005 -1.4136743e-003  1.4142004e-003  1.3835312e-002  1.3835312e-002  1.3836312e-002 
 3.7500009e-002  2.1249980e-001  9.6048712e-004 -4.3974728e-003  4.5011444e-003  1.3879145e-002  1.3879145e-002  1.3889275e-002 
 6.2500015e-002  2.1249980e-001  2.7778661e-003 -6.9597084e-003  7.4936026e-003  1.3904703e-002  1.3904703e-002  1.3932779e-002 
 8.7500006e-002  2.1249980e-001  5.1067257e-003 -8.6971996e-003  1.0085630e-002  1.3920004e-002  1.3920004e-002  1.3970864e-002 
 1.1250000e-001  2.1249980e-001  7.6012309e-003 -9.3868896e-003  1.2078593e-002  1.3924469e-002  1.3924469e-002  1.3997415e-002 
 1.3750000e-001  2.1249980e-001  9.9377502e-003 -9.0041412e-003  1.3410199e-002  1.3918109e-002  1.3918109e-002  1.4008026e-002 
 1.6249999e-001  2.1249980e-001  1.1862127e-002 -7.6910923e-003  1.4137289e-002  1.3903650e-002  1.3903650e-002  1.4003581e-002 
 1.8750000e-001  2.1249980e-001  1.3219086e-002 -5.6903381e-003  1.4391810e-002  1.3884787e-002  1.3884787e-002  1.3988349e-002 
 2.1250005e-001  2.1249980e-001  1.3947040e-002 -3.2784233e-003  1.4327176e-002  1.3865001e-002  1.3865001e-002  1.3967634e-002 
 2.3750010e-001  2.1249980e-001  1.4056127e-002 -7.1709370e-004  1.4074407e-002  1.3846981e-002  1.3846981e-002  1.3946026e-002 
 2.6250011e-001  2.1249980e-001  1.3602983e-002  1.7736770e-003  1.3718130e-002  1.3832385e-002  1.3832385e-002  1.3926478e-002 
 2.8750008e-001  2.1249980e-001  1.2668763e-002  4.0237298e-003  1.3292403e-002  1.3821875e-002  1.3821875e-002  1.3910219e-002 
 3.1250015e-001  2.1249980e-001  1.1344682e-002  5.9073656e-003  1.2790574e-002  1.3815352e-002  1.3815352e-002  1.3897151e-002 
 3.3750021e-001  2.1249980e-001  9.7244307e-003  7.3305806e-003  1.2177929e-002  1.3812308e-002  1.3812308e-002  1.3886459e-002 
 3.6250019e-001  2.1249980e-001  7.9031177e-003  8.2158679e-003  1.1399989e-002  1.3812179e-002  1.3812179e-002  1.3877159e-002 
 3.8750026e-001  2.1249980e-001  5.9818188e-003  8.4882090e-003  1.0384211e-002  1.3814691e-002  1.3814691e-002  1.3868608e-002 
 4.1250032e-001  2.1249980e-001  4.0751249e-003  8.0661755e-003  9.0371361e-003  1.3819979e-002  1.3819979e-002  1.3860813e-002 
 4.3750030e-001  2.1249980e-001  2.3164391e-003  6.8619493e-003  7.2423918e-003  1.3828281e-002  1.3828281e-002  1.3854507e-002 
 4.6250033e-001  2.1249980e-001  8.8049943e-004  4.7920290e-003  4.8722504e-003  1.3842665e-002  1.3842665e-002  1.3854534e-002 
 4.8750019e-001  2.1249980e-001  7.1774048e-005  1.8064947e-003  1.8079199e-003  1.3875072e-002  1.3875072e-002  1.3876706e-002 
 5.0000000e-001  2.1249980e-001  0.0000000e+000  0.0000000e+000  0.0000000e+000  1.3891275e-002  1.3891275e-002  1.3891275e-002 
 0.0000000e+000  2.3749980e-001  0.0000000e+000  0.0000000e+000  0.0000000e+000  1.3797376e-002  1.3797376e-002  1.3797376e-002 
 1.2500005e-002  2.3749980e-001  5.5560704e-005 -1.9594531e-003  1.9602408e-003  1.3825119e-002  1.3825119e-002  1.3827040e-002 
 3.7500009e-002  2.3749980e-001  1.2388538e-003 -5.9584598e-003  6.0858857e-003  1.3880602e-002  1.3880602e-002  1.3899121e-002 
 6.2500015e-002  2.3749980e-001  3.5212853e-003 -9.2513310e-003  9.8988172e-003  1.3910352e-002  1.3910352e-002  1.3959345e-002 
 8.7500006e-002  2.3749980e-001  6.3676466e-003 -1.1341712e-002  1.3006974e-002  1.3924798e-002  1.3924798e-002  1.4009389e-002 
 1.1250000e-001  2.3749980e-001  9.3170339e-003 -1.1999033e-002  1.5191574e-002  1.3924122e-002  1.3924122e-002  1.4039514e-002 
 1.3750000e-001  2.3749980e-001  1.1971474e-002 -1.1265080e-002  1.6438315e-002  1.3909570e-002  1.3909570e-002  1.4044679e-002 
 1.6249999e-001  2.3749980e-001  1.4049337e-002 -9.3890000e-003  1.6897846e-002  1.3885798e-002  1.3885798e-002  1.4028567e-002 
 1.8750000e-001  2.3749980e-001  1.5407526e-002 -6.7242961e-003  1.6810950e-002  1.3858249e-002  1.3858249e-002  1.3999553e-002 
 2.1250005e-001  2.3749980e-001  1.6019480e-002 -3.6381194e-003  1.6427405e-002  1.3831537e-002  1.3831537e-002  1.3966467e-002 
 2.3750010e-001  2.3749980e-001  1.5937014e-002 -4.5333573e-004  1.5943460e-002  1.3808811e-002  1.3808811e-002  1.3935908e-002 